TITLE = "Electromagnetic Field"
VARIABLES = X Y E ER EI EvR EvI EvR' EvI' Ev EvPhase EpR EpI Ep EpPhase EpToEvPhaseShift elConductivity Jr Ji J Jphase QJ
ZONE N=286, E=251, F=FEPOINT, ET=QUADRILATERAL
0.57112613836 0.08225011473 81.0857525327 -11.608290323 -80.2505256031 0 -94.4162608061 0 -101.272128502 94.4162608061 -90 -11.608290323 14.165735203 18.314487655 129.333336954 -140.666663046 6.63763772475e-92 -1.24400401656e-95 -8.60005852746e-95 8.68956573535e-95 -98.2307818951 2.18208996949e-88
0.57113005204 0.083225174263 81.5760840272 -11.5868063505 -80.7489671464 0 -94.9178895255 0 -102.209492321 94.9178895255 -90 -11.5868063505 14.1689223791 18.3033537607 129.274963268 -140.725036732 3.18868993814e-92 -5.98121075694e-96 -4.13555240088e-95 4.1785814901e-95 -98.1660828199 1.04848046179e-88
0.57113437647 0.084302565916 82.5592604143 -11.5441795561 -81.7481161484 0 -95.9235037288 0 -103.235601564 95.9235037288 -90 -11.5441795561 14.1753875804 18.2814130225 129.158712011 -140.841287989 2.71415680019e-94 -5.61115413028e-98 -3.9433975086e-97 3.98311933905e-97 -98.0383625834 9.14380147778e-91
0.57113918255 0.085499957134 83.6369133381 -11.4983775974 -82.842683615 0 -97.0252908447 0 -104.364069285 97.0252908447 -90 -11.4983775974 14.1826072297 18.2581342217 129.032950738 -140.967049262 1.85373527785e-95 -4.28769530361e-99 -3.07191463467e-98 3.10169510583e-98 -97.9025071194 6.42637171258e-92
0.5711445551 0.086838479882 84.8234640251 -11.4489871081 -84.0471809354 0 -98.2378442916 0 -105.610590478 98.2378442916 -90 -11.4489871081 14.1906633562 18.2333414058 128.896441912 -141.103558088 4.39471490031e-96 -1.13559882385e-99 -8.29612872603e-99 8.3734958391e-99 -97.757682708 1.56855624426e-92
0.57115059563 0.088343421623 86.1354617045 -11.3955468924 -85.3782467338 0 -99.5778772414 0 -106.993121566 99.5778772414 -90 -11.3955468924 14.1996305076 18.2068282602 128.747828037 -141.252171963 2.13758139158e-96 -6.36152871696e-100 -4.76918577616e-99 4.81143091256e-99 -97.6030431681 7.9302096258e-93
0.57115742563 0.090045054243 87.5917240821 -11.3375445619 -86.8547832164 0 -101.064345038 0 -108.531997537 101.064345038 -90 -11.3375445619 14.2095618211 18.1783463741 128.585646105 -141.414353895 2.13780515608e-96 -7.15038297892e-100 -5.48167326353e-99 5.52811792426e-99 -97.4377635767 8.20157622385e-93
0.57116519061 0.091979628431 89.2133869554 -11.2744119957 -88.4980005221 0 -102.718466648 0 -110.249932359 102.718466648 -90 -11.2744119957 14.2204661261 18.1475858602 128.408355304 -141.591644696 2.13788268369e-96 -8.07714058106e-100 -6.34526470959e-99 6.39647460605e-99 -97.2610857053 8.50850647729e-93
0.57117406485 0.094190566437 91.02379434 -11.2055180997 -90.3313004895 0 -104.563572028 0 -112.171820271 104.563572028 -90 -11.2055180997 14.2322715386 18.1141437163 128.214382286 -141.785617714 2.13790486199e-96 -9.16721466849e-100 -7.39681683872e-99 7.45341759356e-99 -97.072376249 8.85758696329e-93
0.57118425718 0.096729892694 91.9104812322 -11.1721112694 -91.2289454621 0 -105.466899144 0 -114.324214543 105.466899144 -90 -11.1721112694 14.2379536822 18.0979389786 128.12025341 -141.87974659 2.13790897085e-96 -9.71316781555e-100 -7.93155416682e-99 7.99080770581e-99 -96.9818122932 9.03003209695e-93
0.5870341708 0.081196684323 69.6402343974 -10.0458333824 -68.9118529614 0 -80.7951311849 0 -86.483669746 80.7951311849 -90 -10.0458333824 11.8832782235 15.560561355 130.210362787 -139.789637213 1.67235393915e-85 -2.72362771585e-89 -1.86833909674e-88 1.88808698416e-88 -98.2940416433 4.0552594988e-82
0.58703842067 0.082164092828 73.6256771222 -10.539948619 -72.8673170044 0 -85.4939455972 0 -87.3116455252 85.4939455972 -90 -10.539948619 12.6266285927 16.447947804 129.88285966 -140.11714034 5.42716022561e-86 -8.83879531984e-90 -6.0631903982e-89 6.12727678796e-89 -98.2307324776 1.31602276743e-82
0.58704305152 0.083218221677 76.0249866717 -10.7598729882 -75.2596519883 0 -88.2520577139 0 -88.2065015266 88.2520577139 -90 -10.7598729882 12.9924057256 16.8697857257 129.660569224 -140.339430776 9.39059867546e-91 -1.65720369384e-94 -1.15384748014e-93 1.16568747199e-93 -98.1347022834 2.34300887785e-87
0.58704812528 0.084373171916 76.9959297994 -10.7252074613 -76.2452187354 0 -89.2548600396 0 -89.1781020135 89.2548600396 -90 -10.7252074613 13.0096413042 16.8609720797 129.531455763 -140.468544237 1.31078794197e-93 -2.5377846866e-97 -1.7948975079e-96 1.81274967001e-96 -98.0053107736 3.44428600497e-90
0.58705371593 0.085645784989 78.0548039971 -10.6880072508 -77.3195174601 0 -90.3476840811 0 -90.2379091878 90.3476840811 -90 -10.6880072508 13.0281666211 16.8516327309 129.392745649 -140.607254351 3.47309022748e-95 -7.54225865267e-99 -5.43064905883e-98 5.48277616995e-98 -97.8684195365 9.86224090874e-92
0.58705991191 0.087056188761 79.2146390659 -10.6479027726 -78.495658972 0 -91.5437360485 0 -91.3991757225 91.5437360485 -90 -10.6479027726 13.0480770765 16.8416282066 129.243230346 -140.756769654 5.4627662812e-96 -1.33349289088e-99 -9.7819208096e-99 9.87240162867e-99 -97.7232523372 1.66131221761e-92
0.58706681895 0.088628452557 80.4904437089 -10.604486679 -79.7887326314 0 -92.8582050161 0 -92.6771244024 92.8582050161 -90 -10.604486679 13.0694723847 16.8308038888 129.081582018 -140.918417982 2.13541127302e-96 -6.05608158685e-100 -4.5598547732e-99 4.59990040805e-99 -97.5690179326 6.95114202659e-93
0.58707456356 0.090391372949 81.8993636589 -10.5573132538 -81.2159608661 0 -94.3084089143 0 -94.0890904849 94.3084089143 -90 -10.5573132538 13.0924480481 16.8189841982 128.906367331 -141.093632669 2.1356915346e-96 -6.78453123393e-100 -5.22328463741e-99 5.2671689642e-99 -97.404940583 7.19728666683e-93
0.58708329714 0.092379416336 83.4607649738 -10.5058965452 -82.7967779161 0 -95.9138565146 0 -95.6545885531 95.9138565146 -90 -10.5058965452 13.1170785986 16.8059596778 128.716074492 -141.283925508 2.13579560941e-96 -7.64008248332e-100 -6.02625011773e-99 6.07449572784e-99 -97.2303012434 7.47448643524e-93
0.58709320098 0.094633849531 85.1961827476 -10.4497056371 -84.5527730971 0 -97.696161316 0 -97.3952447217 97.696161316 -90 -10.4497056371 13.143388219 16.7914624422 128.50915782 -141.49084218 2.13583152058e-96 -8.64645247219e-100 -7.00274959827e-99 7.05593795548e-99 -97.0444904436 7.78854149721e-93
0.58710449221 0.097204095727 84.639907658 -10.133951929 -84.0308894701 0 -96.8132795696 0 -99.3345053224 96.8132795696 -90 -10.133951929 12.7823900995 16.312290731 128.422673329 -141.577326671 2.13510144345e-96 -9.37741456353e-100 -7.78465147814e-99 7.8409433888e-99 -96.8730389953 7.67504949426e-93
0.58711743092 0.10014936061 83.3302269175 -9.60265595113 -82.7749516644 0 -94.9316775623 0 -101.496990624 94.9316775623 -90 -9.60265595113 12.1567258979 15.4918771609 128.305352136 -141.694647864 2.13382204632e-96 -1.05026297969e-99 -9.06311757718e-99 9.12378348177e-99 -96.6185765641 7.40972943014e-93
0.58713232874 0.10354058219 85.5670750059 -9.54017858865 -85.033419528 0 -97.2314478285 0 -103.907303246 97.2314478285 -90 -9.54017858865 12.1980283006 15.4857477981 128.029226313 -141.970773687 2.13382244949e-96 -1.20096422232e-99 -1.0717478654e-98 1.0784576187e-98 -96.4029348205 7.81309005385e-93
0.58714955912 0.10746276841 88.0555192421 -9.47210277079 -87.5444037882 0 -99.7859062122 0 -106.588022353 99.7859062122 -90 -9.47210277079 12.241502424 15.4782695239 127.731574717 -142.268425283 2.13382261016e-96 -1.37862456521e-99 -1.27590537926e-98 1.28333436049e-98 -96.1769449223 8.27439264053e-93
0.58716956962 0.11201779914 90.6517993194 -9.40192714177 -90.1627443054 0 -102.446124015 0 -109.55651548 102.446124015 -90 -9.40192714177 12.2833797094 15.4686587537 127.431058245 -142.568941755 2.13382280438e-96 -1.49040552079e-99 -1.4297977451e-98 1.43754746632e-98 -95.9548334187 8.76958859605e-93
0.58719036966 0.11675255534 91.9876754109 -9.36595395636 -91.5096242698 0 -103.813568957 0 -112.476786026 103.813568957 -90 -9.36595395636 12.3039446875 15.4631222069 127.278954674 -142.721045326 2.13382301107e-96 -1.51285333828e-99 -1.47812642691e-98 1.48584823793e-98 -95.843839095 9.02791968368e-93
0.60311521698 0.080055383896 60.0848493589 -8.7082606484 -59.4504442285 0 -69.4320610138 0 -74.095704958 69.4320610138 -90 -8.7082606484 9.98161678538 13.2463760014 131.10241637 -138.89758363 2.75727557273e-73 -3.89928701888e-77 -2.6620051329e-76 2.69041181237e-76 -98.3333831737 4.97714314018e-70
0.60311974734 0.081028945947 63.4415473295 -9.13483682582 -62.7804238945 0 -73.3880782524 0 -74.8384902536 73.3880782524 -90 -9.13483682582 10.6076543578 13.9991787349 130.763249006 -139.236750994 8.97618755498e-74 -1.26939548465e-77 -8.66603889281e-77 8.7585155699e-77 -98.2781839037 1.62028673374e-70
0.60312462494 0.082077130701 65.479855142 -9.32771266325 -64.8120198811 0 -75.7341344115 0 -75.6324109627 75.7341344115 -90 -9.32771266325 10.9221145305 14.3634142827 130.527657114 -139.472342886 1.93140339238e-82 -2.92424325812e-86 -2.02626980538e-85 2.04726190615e-85 -98.1872796379 3.57053245023e-79
0.60312990217 0.083211193133 66.3173193775 -9.30200579485 -65.6616433395 0 -76.6083599429 0 -76.484560223 76.6083599429 -90 -9.30200579485 10.9467166034 14.3654544285 130.384898723 -139.615101277 1.20269609872e-88 -1.95964429428e-92 -1.37918159888e-91 1.39303408971e-91 -98.0606705203 2.28483629835e-85
0.60313564145 0.084444548885 67.2207425016 -9.27502338748 -66.5777223554 0 -77.550935136 0 -77.4032198554 77.550935136 -90 -9.27502338748 10.9732127806 14.3682061781 130.233413221 -139.766586779 1.63428008525e-92 -2.89558911923e-96 -2.07054288973e-95 2.09069201185e-95 -97.9283606689 3.24814318844e-89
0.60314191727 0.085793204195 68.1995378744 -9.24657445016 -67.5697253197 0 -78.5715264492 0 -78.3980289269 78.5715264492 -90 -9.24657445016 11.0018011295 14.3717156099 130.072137658 -139.927862342 1.1166807641e-94 -2.195997473e-98 -1.59711404383e-97 1.6121412731e-97 -97.7897282465 2.39014336668e-91
0.60314881855 0.087276271657 69.2646249611 -9.21644691761 -68.6486288227 0 -79.6813317481 0 -79.4801588919 79.6813317481 -90 -9.21644691761 11.0327029253 14.3760373098 129.899891252 -140.100108748 8.6535259232e-96 -1.90176184403e-99 -1.40813788483e-98 1.4209229058e-98 -97.6441175763 1.99226387236e-92
0.60315645158 0.08891658894 70.4286087582 -9.18440814694 -69.8270953066 0 -80.8932572513 0 -80.6624852386 80.8932572513 -90 -9.18440814694 11.0661619447 14.3812351177 129.715380231 -140.284619769 2.13318487758e-96 -5.45887040621e-100 -4.15301075246e-99 4.18873897921e-99 -97.4908557388 5.31364141071e-93
0.60316494342 0.090741460983 71.7059413332 -9.15020525876 -71.1196322303 0 -82.222072292 0 -81.9597390325 82.222072292 -90 -9.15020525876 11.1024400617 14.3873800549 129.517211813 -140.482788187 2.13355957341e-96 -6.07323887236e-100 -4.72377377941e-99 4.76266109952e-99 -97.329276506 5.50890033764e-93
0.60317444605 0.092783550251 73.1130381989 -9.11356450327 -72.5427054366 0 -83.684512077 0 -83.3886112949 83.684512077 -90 -9.11356450327 11.1418066404 14.3945429364 129.303920822 -140.696079178 2.13369601295e-96 -6.79375477129e-100 -5.41193178263e-99 5.45441474316e-99 -97.1587528698 5.72744593828e-93
0.60318514136 0.095081944519 74.6683071423 -9.07418827705 -74.1147643689 0 -85.2992825068 0 -84.9677682576 85.2992825068 -90 -9.07418827705 11.1845181379 14.4027779294 129.074012964 -140.925987036 2.13373793937e-96 -7.6407264349e-100 -6.24597892078e-99 6.29254941612e-99 -96.9787390947 5.97373107539e-93
0.60319724712 0.097683437468 76.3920252871 -9.03174761803 -75.8561150366 0 -87.0868979434 0 -86.7177135605 87.0868979434 -90 -9.03174761803 11.2307829068 14.4120916462 128.826029105 -141.173970895 2.13374874963e-96 -8.63797507622e-100 -7.26168326656e-99 7.31289002182e-99 -96.7888225837 6.25271487416e-93
0.60321102406 0.10064406433 78.305968872 -8.98586689507 -77.7885454553 0 -89.0692498253 0 -88.6604020196 89.0692498253 -90 -8.98586689507 11.28070437 14.4223901449 128.558634685 -141.441365315 2.1337511624e-96 -9.81349221345e-100 -8.50412480928e-99 8.5605743917e-99 -96.5887848041 6.56998131278e-93
0.60322678451 0.10403094312 80.4326563026 -8.93609594247 -79.9345645152 0 -91.2687580286 0 -90.8184651896 91.2687580286 -90 -8.93609594247 11.3341935134 14.4333934332 128.270737368 -141.729262632 2.1337518896e-96 -1.12001490274e-99 -1.00302376589e-98 1.00925947645e-98 -96.3786690568 6.93177373595e-93
0.60324490266 0.10792448197 82.794005095 -8.88186312301 -82.3160554505 0 -93.706894614 0 -93.2138490294 93.706894614 -90 -8.88186312301 11.3908391635 14.4445038793 127.961633741 -142.038366259 2.13375229118e-96 -1.28364118825e-99 -1.19119082121e-98 1.1980894926e-98 -96.1588510665 7.34489033313e-93
0.60326582681 0.1124210247 85.2517912256 -8.82522731513 -84.7936085197 0 -96.2390562858 0 -95.8655850019 96.2390562858 -90 -8.82522731513 11.4454477661 14.452945489 127.650425976 -142.349574024 2.13375261801e-96 -1.38753395622e-99 -1.33360758428e-98 1.34080886741e-98 -95.9427732822 7.78738610033e-93
0.60328756585 0.11709268475 85.4428352682 -8.58770787594 -85.0100493218 0 -96.2206898516 0 -98.4897856811 96.2206898516 -90 -8.58770787594 11.2106405299 14.1219402278 127.462171406 -142.537828594 2.13372905066e-96 -1.37432581481e-99 -1.36040561453e-98 1.36733189023e-98 -95.7663333372 7.8128189993e-93
0.60330944233 0.12179387981 83.2972936434 -8.17038802471 -82.8956204382 0 -93.582086248 0 -100.995685388 93.582086248 -90 -8.17038802471 10.6864658098 13.4519809686 127.399891633 -142.600108367 2.13368136647e-96 -1.30489697674e-99 -1.32393032213e-98 1.33034546605e-98 -95.6290264572 7.40220914023e-93
0.61912588115 0.078818736822 52.1385225478 -7.57669341796 -51.5850680946 0 -60.0024674858 0 -63.7961636784 60.0024674858 -90 -7.57669341796 8.41739939126 11.3251443992 131.991100671 -138.008899329 1.03949465811e-56 -1.27480478752e-60 -8.67936554165e-60 8.77248616139e-60 -98.355724947 1.41289441026e-53
0.61913062006 0.079807663395 54.9618178012 -7.94074310905 -54.3851400114 0 -63.3237113729 0 -64.4709602617 63.3237113729 -90 -7.94074310905 8.93857136151 11.9565958846 131.645364307 -138.354635693 3.38937617666e-57 -4.15662836071e-61 -2.82999384036e-60 2.86035674868e-60 -98.3060253618 4.60688337059e-54
0.6191356721 0.08086193389 56.6950075579 -8.10703717728 -56.1123299984 0 -65.3175548854 0 -65.1856307439 65.3175548854 -90 -8.10703717728 9.20522488708 12.2664734865 131.39827602 -138.60172398 2.10693342638e-68 -2.74185185049e-72 -1.89486655022e-71 1.91460093985e-71 -98.2182294534 2.93508937034e-65
0.61914108038 0.081990545638 57.4303372137 -8.08774388151 -56.8579386136 0 -66.0922434859 0 -65.9452645779 66.0922434859 -90 -8.08774388151 9.23430487233 12.2755767449 131.239921305 -138.760078695 2.91664843975e-78 -4.04342481195e-82 -2.83817742039e-81 2.86683517376e-81 -98.0927543885 4.1690166087e-75
0.61914689615 0.083204195111 58.2158549033 -8.06793369086 -57.6540261731 0 -66.9194481435 0 -66.7558195091 66.9194481435 -90 -8.06793369086 9.2654219704 12.2859698983 131.073746462 -138.926253538 3.60837321686e-86 -5.3533803129e-90 -3.81901301316e-89 3.8563515632e-89 -97.9630914319 5.30355496739e-83
0.61915318045 0.084515615381 59.0583412845 -8.0475233021 -58.5074090313 0 -67.8062106584 0 -67.6242568817 67.8062106584 -90 -8.0475233021 9.29880162707 12.2977836569 130.898843639 -139.101156361 3.18499088145e-91 -5.10178704147e-95 -3.69964234672e-94 3.73465370478e-94 -97.8287608621 4.87531462467e-88
0.61916000597 0.085939980947 59.9656928269 -8.02641920546 -59.426021946 0 -68.7607211592 0 -68.5586894828 68.7607211592 -90 -8.02641920546 9.33469921326 12.3111680553 130.714194613 -139.285805387 4.59303397317e-94 -8.09229072397e-98 -5.96523326451e-97 6.01987433758e-97 -97.6892431913 7.53259492252e-91
0.61916745947 0.087495393377 60.9470794676 -8.00451837578 -60.4190749514 0 -69.7924774344 0 -69.568538358 69.7924774344 -90 -8.00451837578 9.37340248299 12.3262955324 130.518669954 -139.481330046 1.67665764996e-95 -3.29304119812e-99 -2.47415348486e-98 2.49597436467e-98 -97.5439871371 2.95054716024e-92
0.6191756445 0.089203463875 62.0131068112 -7.98170923092 -61.4972144235 0 -70.912447109 0 -70.6646921968 70.912447109 -90 -7.98170923092 9.41523268551 12.3433632829 130.311034133 -139.688965867 3.27740397391e-96 -7.20109152076e-100 -5.54446840114e-99 5.5910415208e-99 -97.3924222972 6.01955708544e-93
0.61918468479 0.091090012093 63.1759715652 -7.95787251944 -62.6726769802 0 -72.1332200343 0 -71.8596576721 72.1332200343 -90 -7.95787251944 9.46054305405 12.362593676 130.089959195 -139.910040805 2.133410279e-96 -5.37891690341e-100 -4.23887193782e-99 4.27286948116e-99 -97.2339776241 4.27401603245e-93
0.61919472825 0.093185904327 64.4495914166 -7.93288148883 -63.9594173994 0 -73.4691301372 0 -73.1676819911 73.4691301372 -90 -7.93288148883 9.50971273781 12.3842308069 129.854050189 -140.145949811 2.13359363924e-96 -5.97950050944e-100 -4.82430587085e-99 4.86122822319e-99 -97.0681067555 4.44836121052e-93
0.6192059518 0.095528058828 65.8496795269 -7.90660022322 -65.3731807476 0 -74.9363140991 0 -74.6048178049 74.9363140991 -90 -7.90660022322 9.56313335148 12.4085302265 129.601886065 -140.398113935 2.13365154201e-96 -6.68475124704e-100 -5.53118947939e-99 5.57144590841e-99 -96.8943210462 4.6437961719e-93
0.61921856712 0.098160651436 67.3937177204 -7.8788783766 -66.9314728711 0 -76.5526569995 0 -76.1888846094 76.5526569995 -90 -7.8788783766 9.62118412843 12.4357375007 129.332080058 -140.667919942 2.13366688156e-96 -7.51483189101e-100 -6.38912355125e-99 6.43317622242e-99 -96.7122307052 4.86414146796e-93
0.6192328276 0.10113656129 69.100759271 -7.8495396079 -68.653360311 0 -78.3375504352 0 -77.9392573797 78.3375504352 -90 -7.8495396079 9.68419012429 12.466049394 129.043363371 -140.956636629 2.13367023297e-96 -8.49355568552e-100 -7.43535762816e-99 7.48372436752e-99 -96.5215936986 5.11371098936e-93
0.61924903666 0.10451910417 70.9909593323 -7.81835979706 -70.5589979474 0 -80.3113539355 0 -79.8763801882 80.3113539355 -90 -7.81835979706 9.75235598806 12.4995490972 128.734695119 -141.265304881 2.13367097914e-96 -9.64908415077e-100 -8.71691286738e-99 8.77016984943e-99 -96.3223710053 5.39738211015e-93
0.61926755768 0.10838411037 73.0846854645 -7.78502958449 -72.6687371981 0 -82.494402732 0 -82.0208566963 82.494402732 -90 -7.78502958449 9.82566553392 12.5361040531 128.40539947 -141.59460053 2.13367123262e-96 -1.10146626982e-99 -1.02931926465e-98 1.03519767046e-98 -96.1147854361 5.72057467943e-93
0.61928882593 0.11282241508 75.2674426141 -7.75052577314 -74.8672019976 0 -84.7658471808 0 -84.3919079173 84.7658471808 -90 -7.75052577314 9.89864518315 12.5720802282 128.074749509 -141.925250491 2.13367148007e-96 -1.18988748215e-99 -1.14971067746e-98 1.15585358872e-98 -95.9107765791 6.06738197664e-93
0.61931091137 0.11743125371 77.5080725704 -7.71485925627 -77.1230516455 0 -87.0925833704 0 -86.7497618474 87.0925833704 -90 -7.71485925627 9.96953172493 12.6060972121 127.747637993 -142.252362007 2.13367166361e-96 -1.21075932243e-99 -1.21038590886e-98 1.21642823898e-98 -95.7129920006 6.43378196658e-93
0.61933315777 0.1220736823 78.6203592416 -7.69714377596 -78.2426649473 0 -88.2464333887 0 -89.0168458037 88.2464333887 -90 -7.69714377596 10.0037684414 12.6223282467 127.588330527 -142.411669473 2.13367163362e-96 -1.21233287678e-99 -1.23231696462e-98 1.23826599421e-98 -95.6177166953 6.61834351377e-93
0.63486197863 0.078496196161 49.0633208539 -7.08447836299 -48.5491230567 0 -56.329606404 0 -55.8827395841 56.329606404 -90 -7.08447836299 7.7804833473 10.5228223193 132.345087558 -137.654912442 2.15374130333e-50 -2.40963989626e-54 -1.66305197618e-53 1.6804182574e-53 -98.2988141343 2.29066184245e-47
0.63486711989 0.079564256869 49.3910835134 -7.07699077624 -48.881388014 0 -56.6776904485 0 -56.5337113131 56.6776904485 -90 -7.07699077624 7.79630243451 10.529495222 132.256522003 -137.743477997 1.04479607516e-50 -1.16893440372e-54 -8.0675899878e-54 8.15183512171e-54 -98.2349158407 1.1112172566e-47
0.63487257652 0.080697831423 50.0470612108 -7.06240661971 -49.5461914465 0 -57.3742005181 0 -57.220170154 57.3742005181 -90 -7.06240661971 7.82800907151 10.5432064854 132.08099166 -137.91900834 1.9865890099e-62 -2.34958019967e-66 -1.64714086821e-65 1.66381438595e-65 -98.1092866111 2.16971943763e-59
0.63487838967 0.08190546964 50.7419559142 -7.04775512547 -50.2500660658 0 -58.1117409366 0 -57.946404015 58.1117409366 -90 -7.04775512547 7.86167487083 10.5584297667 131.898557165 -138.101442835 1.00600921788e-73 -1.262292348e-77 -8.99334328525e-77 9.08149797274e-77 -97.9807288743 1.12952332192e-70
0.63488460818 0.08319731911 51.4806534373 -7.03301346569 -50.9979200889 0 -58.8954327897 0 -58.7174326164 58.8954327897 -90 -7.03301346569 7.89751270083 10.5753213589 131.708468044 -138.291531956 2.34290751523e-83 -3.13158104568e-87 -2.26879740167e-86 2.29030777099e-86 -97.8488839154 2.70852326463e-80
0.63489129012 0.084585442106 52.2688562357 -7.01815540888 -51.7954806852 0 -59.7312463717 0 -59.539124185 59.7312463717 -90 -7.01815540888 7.93576568649 10.5940604936 131.509874251 -138.490125749 9.47069497113e-90 -1.35870522942e-93 -1.00116721796e-92 1.01034486734e-92 -97.7133540976 1.13735869324e-86
0.63489850459 0.086084195763 53.1132094901 -7.00315202296 -52.6494197657 0 -60.6261304874 0 -60.4183243928 60.6261304874 -90 -7.00315202296 7.97671072177 10.6148530291 131.301822033 -138.698177967 2.39163134198e-93 -3.7461840353e-97 -2.8057559202e-96 2.83065554642e-96 -97.5737058767 3.06133235964e-90
0.63490633396 0.087710688124 54.0214384686 -6.98797269561 -53.567490859 0 -61.588152543 0 -61.3629954649 61.588152543 -90 -6.98797269561 8.02066168405 10.6379352288 131.083253439 -138.916746561 3.44960659582e-95 -6.02534248093e-99 -4.59648347584e-98 4.63581096861e-98 -97.4294756508 4.78345973713e-92
0.63491487644 0.089485325212 55.0024932599 -6.97258637858 -54.5586731276 0 -62.6266448943 0 -62.3823612963 62.6266448943 -90 -6.97258637858 8.06797176665 10.6635771283 130.853011318 -139.146988682 5.01767806435e-96 -9.76598050966e-100 -7.60387644504e-99 7.66634268558e-99 -97.280179271 7.42615549783e-93
0.63492424929 0.091432467227 56.0666934399 -6.95696280671 -55.633315053 0 -63.7523490379 0 -63.4870506733 63.7523490379 -90 -6.95696280671 8.11903398492 10.6920846053 130.609852162 -139.390147838 2.13331293333e-96 -4.72465666468e-100 -3.7802496058e-99 3.80966564155e-99 -97.125326099 3.36453048218e-93
0.63493459262 0.093581215628 57.2258598087 -6.94107319423 -56.8032649095 0 -64.9775433034 0 -64.6892255663 64.9775433034 -90 -6.94107319423 8.17427839386 10.7237986879 130.352469664 -139.647530336 2.13354984545e-96 -5.2216840672e-100 -4.27573611605e-99 4.30750893889e-99 -96.9644384965 3.50540950596e-93
0.63494607385 0.09596635711 58.4934123055 -6.92488954332 -58.0819671436 0 -66.3161309891 0 -66.0026733723 66.3161309891 -90 -6.92488954332 8.2341638455 10.759089831 130.079532344 -139.920467656 2.1336264516e-96 -5.80448679998e-100 -4.87157232223e-99 4.90603803047e-99 -96.7970775018 3.66251181335e-93
0.63495889327 0.09862949567 59.8844013398 -6.90838116247 -59.4844919411 0 -67.7836530872 0 -67.4428299862 67.7836530872 -90 -6.90838116247 8.29916114608 10.798343754 129.789738853 -140.210261147 2.13364743318e-96 -6.48991389229e-100 -5.59205872119e-99 5.62960094336e-99 -96.6228751563 3.83880640912e-93
0.63497329048 0.10162041007 61.4154225659 -6.89150624153 -61.0274481158 0 -69.3971713127 0 -69.0266836426 69.3971713127 -90 -6.89150624153 8.36972319692 10.8419339096 129.4818945 -140.5181055 2.13365220605e-96 -7.29793488955e-100 -6.4677117489e-99 6.50876525866e-99 -96.441573426 4.03764396506e-93
0.6349895523 0.10499868136 63.1043405542 -6.87419532432 -62.7287049409 0 -71.1749410149 0 -70.7724843342 71.1749410149 -90 -6.87419532432 8.44623607397 10.890173672 129.155011783 -140.844988217 2.13365322663e-96 -8.2522944896e-100 -7.53701470835e-99 7.58206942501e-99 -96.2530688864 4.26284076173e-93
0.63500802209 0.10883564382 64.9697122807 -6.85632222064 -64.6068140977 0 -73.1357570907 0 -72.6991491622 73.1357570907 -90 -6.85632222064 8.528942993 10.9432388528 128.808436029 -141.191563971 2.13365350421e-96 -9.38121912838e-100 -8.84858135166e-99 8.89818644995e-99 -96.0574613107 4.5187002492e-93
0.63502911107 0.11321672322 66.9163634489 -6.83815152215 -66.5659481287 0 -75.1784250977 0 -74.8252062055 75.1784250977 -90 -6.83815152215 8.61247696903 10.9971570057 128.461309403 -141.538690597 2.1336537375e-96 -1.01261618765e-99 -9.85947293834e-99 9.91135225458e-99 -95.865303866 4.79356451091e-93
0.63505099929 0.11776383751 68.9189889444 -6.8195572678 -68.5806698441 0 -77.275853031 0 -76.9478276928 77.275853031 -90 -6.8195572678 8.6951831869 11.0505546164 128.11847116 -141.88152884 2.13365391504e-96 -1.03253167772e-99 -1.0383532752e-98 1.0434757236e-98 -95.6789115141 5.08464251081e-93
0.63507306839 0.12234852905 69.9147080141 -6.81038264191 -69.5822149594 0 -78.3177587367 0 -79.0007448202 78.3177587367 -90 -6.81038264191 8.73554377731 11.0766485067 127.951583551 -142.048416449 2.13365385388e-96 -1.03532790918e-99 -1.05773435323e-98 1.06278930346e-98 -95.5890540832 5.23150376425e-93
0.65014933707 0.078182853243 43.5950205186 -6.20803202322 -43.150713391 0 -49.8136041397 0 -49.3688957663 49.8136041397 -90 -6.20803202322 6.66289074867 9.10693091308 132.997753484 -137.002246516 1.85019487211e-44 -1.87013156979e-48 -1.31005795536e-47 1.32333887092e-47 -98.1834526681 1.56552014326e-41
0.65015475143 0.079327793277 43.9069147385 -6.20239379643 -43.4665723944 0 -50.1468829349 0 -49.9961554325 50.1468829349 -90 -6.20239379643 6.68031054047 9.11585447451 132.89677988 -137.10322012 8.99278095017e-45 -9.08968228626e-49 -6.3674720983e-48 6.43202333357e-48 -98.1178852026 7.60913346678e-42
0.65016047638 0.080538411119 44.5309285805 -6.19151847756 -44.098342759 0 -50.8135403397 0 -50.6552170371 50.8135403397 -90 -6.19151847756 6.71519758074 9.1340673334 132.696931128 -137.303068872 1.09494186309e-56 -1.16630745602e-60 -8.30398106155e-60 8.38548594616e-60 -97.9891810697 9.53201742794e-54
0.65016655029 0.081822821743 45.1893424376 -6.18084934541 -44.7645908531 0 -51.5166561039 0 -51.3497098904 51.5166561039 -90 -6.18084934541 6.75206525081 9.15399058446 132.490474849 -137.509525151 1.87019321663e-69 -2.10617296005e-73 -1.52484323343e-72 1.53932015272e-72 -97.8583349658 1.67680178736e-66
0.65017301863 0.083190639415 45.8862811234 -6.17039506599 -45.4694570837 0 -52.2605810533 0 -52.0838820084 52.2605810533 -90 -6.17039506599 6.79112396958 9.17579783687 132.276726433 -137.723273567 2.84995540948e-80 -3.40594844962e-84 -2.50869130839e-83 2.53170633311e-83 -97.7250508182 2.6351282976e-77
0.65017993535 0.084653274652 46.6265605704 -6.16016544405 -46.2177747271 0 -53.0503898549 0 -52.8627007437 53.0503898549 -90 -6.16016544405 6.83261512777 9.19968875157 132.054908151 -137.945091849 4.23935957265e-88 -5.41100649698e-92 -4.05560707752e-91 4.09154501316e-91 -97.5889978297 4.06722376826e-85
0.65018736461 0.086224290455 47.4157964567 -6.1501724144 -47.0151783786 0 -53.891993252 0 -53.6919649532 53.891993252 -90 -6.1501724144 6.87681487332 9.22589304448 131.824145411 -138.175854589 1.50105602756e-92 -2.08028765037e-96 -1.58504231944e-95 1.59863590633e-95 -97.4498125013 1.52988223578e-89
0.65019538272 0.087919829628 48.2605238433 -6.14043128848 -47.8682232881 0 -54.7922610683 0 -54.5784277073 54.7922610683 -90 -6.14043128848 6.92403778022 9.25467466376 131.583466337 -138.416533663 7.52665033527e-95 -1.15474416008e-98 -8.95427847237e-98 9.02843604347e-98 -97.3071028307 8.29025241885e-92
0.65020408067 0.089759127362 49.1683254719 -6.13096218792 -48.7845132054 0 -55.7591531809 0 -55.5299267342 55.7591531809 -90 -6.13096218792 6.97463997547 9.28633577944 131.331806306 -138.668193694 6.5852628188e-96 -1.12045727357e-99 -8.86316282102e-99 8.93371373131e-99 -97.1604553396 7.75454089145e-93
0.65021356693 0.091765126071 50.1479638661 -6.12179147832 -49.7728318579 0 -56.801852884 0 -56.5555175415 56.801852884 -90 -6.12179147832 7.02902102616 9.32121993049 131.068019527 -138.931980473 2.13320371331e-96 -4.12746731157e-100 -3.35733157423e-99 3.38261252698e-99 -97.0094456454 2.69033696515e-93
0.65022397102 0.093965212842 51.2095084866 -6.11295282939 -50.8432692936 0 -57.9308927883 0 -57.6655999355 57.9308927883 -90 -6.11295282939 7.08762349464 9.35971323929 130.790900196 -139.209099804 2.13350024102e-96 -4.53726176566e-100 -3.77562730357e-99 3.80279768063e-99 -96.8536533113 2.80578319562e-93
0.65023544767 0.096392103889 52.3644433062 -6.10448723774 -52.0073284631 0 -59.1582569743 0 -58.8720230619 59.1582569743 -90 -6.10448723774 7.15092851121 9.40224196601 130.49921621 -139.50078379 2.13359793611e-96 -5.0168901707e-100 -4.27644728945e-99 4.30578059339e-99 -96.6926816418 2.9338788749e-93
0.65024818179 0.099084905215 53.6257314221 -6.09644092397 -53.2779886838 0 -60.4974336268 0 -60.1881451802 60.4974336268 -90 -6.09644092397 7.21944494302 9.44926377892 130.191758659 -139.808241341 2.13362543317e-96 -5.58030497e-100 -4.87963934828e-99 4.91145069714e-99 -96.5261829035 3.07695718103e-93
0.65026239454 0.10209038446 55.0078005496 -6.08885942 -54.6696898992 0 -61.9633786075 0 -61.6288115227 61.9633786075 -90 -6.08885942 7.29368870833 9.50124889445 129.867410316 -140.132589684 2.13363193551e-96 -6.24407686206e-100 -5.61006438605e-99 5.64471436119e-99 -96.353889099 3.23764237875e-93
0.65027835054 0.10546449576 56.5263947665 -6.08177533818 -56.1981832164 0 -63.5723306428 0 -63.210195124 63.5723306428 -90 -6.08177533818 7.37414742643 9.55864560383 129.525235772 -140.474764228 2.13363333864e-96 -7.02798926103e-100 -6.49902896695e-99 6.53692814156e-99 -96.1756478695 3.41893627828e-93
0.65029636647 0.10927420767 58.1982117249 -6.075186244 -57.8801671099 0 -65.3413909943 0 -64.9494190749 65.3413909943 -90 -6.075186244 7.46122388443 9.62182262037 129.164594483 -140.835405517 2.13363368621e-96 -7.95568735076e-100 -7.58605775319e-99 7.62767165897e-99 -95.9914623468 3.62425974571e-93