TITLE = "Electromagnetic Field"
VARIABLES = X Y E ER EI EvR EvI EvR' EvI' Ev EvPhase EpR EpI Ep EpPhase EpToEvPhaseShift elConductivity Jr Ji J Jphase QJ
ZONE N=297, E=260, F=FEPOINT, ET=QUADRILATERAL
0.90385284315 0.025984067974 3.31002603766 -0.746115661196 -3.22483856807 0 -3.65439836437 0 -3.68036085611 3.65439836437 -90 -0.746115661196 0.429559796299 0.860935652926 150.069753995 -119.930246005 0.0582513030243 -1.18096374192e-08 -5.10432580431e-08 5.23916188682e-08 -103.027036631 0.319108570921
0.90385284315 0.025819223312 3.30128834484 -0.74419239159 -3.21631503702 0 -3.64475701413 0 -3.65713210282 3.64475701413 -90 -0.74419239159 0.428441977116 0.858711152575 150.07036529 -119.92963471 0.0446401977063 -8.60308928995e-09 -3.71826612289e-08 3.81649504346e-08 -103.027864067 0.243728768556
0.90385284315 0.02568185276 3.28352119275 -0.740281053319 -3.19898349221 0 -3.62515228545 0 -3.63777309083 3.62515228545 -90 -0.740281053319 0.426168793241 0.854187261848 150.071607071 -119.928392929 0.021372932599 -3.42035216054e-09 -1.47807755918e-08 1.51713590699e-08 -103.029543619 0.115415845766
0.90385284315 0.0255673773 3.26871426823 -0.737020298844 -3.18453984826 0 -3.60881378257 0 -3.62163939461 3.60881378257 -90 -0.737020298844 0.424273934305 0.850415952512 150.072639642 -119.927360358 0.00960433082134 -1.27927062319e-09 -5.52763774316e-09 5.67373883341e-09 -103.030937735 0.0513909724254
0.90385284315 0.025471981083 3.2563744981 -0.73430209891 -3.17250300213 0 -3.5951975141 0 -3.60819382767 3.5951975141 -90 -0.73430209891 0.422694511971 0.847272224817 150.073498554 -119.926501446 0.00387191947113 -4.30316073836e-10 -1.85919101862e-09 1.90834042228e-09 -103.032095648 0.0205604435713
0.90385284315 0.025392484236 3.2460908954 -0.732036305212 -3.16247196801 0 -3.58385003609 0 -3.59698862131 3.58385003609 -90 -0.732036305212 0.421378068081 0.844651779392 150.074213221 -119.925786779 0.00131697146996 -1.22449600836e-10 -5.2900545668e-10 5.42992336918e-10 -103.033057882 0.00694907027135
0.90385284315 0.025326236863 3.23752090758 -0.730147708866 -3.15411254553 0 -3.57439339777 0 -3.58765055657 3.57439339777 -90 -0.730147708866 0.420280852237 0.842467608597 150.074808011 -119.925191989 0.000346810525122 -2.70347265424e-11 -1.16787615851e-10 1.19875867695e-10 -103.033857861 0.00182029906713
0.90385284315 0.025271030719 3.23037903026 -0.728573576814 -3.14714620284 0 -3.56651258422 0 -3.57986856398 3.56651258422 -90 -0.728573576814 0.419366381381 0.840647142786 150.075303133 -119.924696867 6.33158917116e-05 -4.13800566982e-12 -1.78748498187e-11 1.83475706013e-11 -103.034523194 0.000330842329682
0.90385284315 0.0252250256 3.22442731279 -0.727261590677 -3.14134080832 0 -3.55994504441 0 -3.57338338184 3.55994504441 -90 -0.727261590677 0.418604236093 0.839129863464 150.075715359 -119.924284641 7.23902978915e-06 -3.95703100735e-13 -1.70923133539e-12 1.7544380017e-12 -103.035076719 3.76816685287e-05
0.90385284315 0.025186688 3.21946744228 -0.726168123565 -3.1365029042 0 -3.5544719594 0 -3.56797893264 3.5544719594 -90 -0.726168123565 0.417969055196 0.837865308262 150.076058618 -119.923941382 5.14360539343e-07 -2.34695192693e-14 -1.0137217378e-13 1.04053524456e-13 -103.035537348 2.66875528485e-06
0.90385284315 0.02515474 3.21702813417 -0.725630315127 -3.13412358751 0 -3.55178024313 0 -3.5634751344 3.55178024313 -90 -0.725630315127 0.417656655621 0.837243355433 150.076227366 -119.923772634 4.24654464912e-08 -1.62272401636e-15 -7.00882737349e-15 7.19422646187e-15 -103.035763721 2.19743186044e-07
0.90550119483 0.026181881569 3.30660128809 -0.739713330977 -3.22279944557 0 -3.64974049468 0 -3.67930369919 3.64974049468 -90 -0.739713330977 0.426941049104 0.854081068421 150.007706091 -119.992293909 0.103173777509 -2.73968870302e-08 -1.19363365014e-07 1.22467147948e-07 -102.926918571 0.564031029973
0.90550119483 0.025984067974 3.30024033182 -0.739973113747 -3.21621194414 0 -3.64298046244 0 -3.65164886801 3.64298046244 -90 -0.739973113747 0.426768518298 0.85421996667 150.026299715 -119.973700285 0.0732260362426 -1.7626323303e-08 -7.66726726406e-08 7.86726695643e-08 -102.956815496 0.399270893082
0.90550119483 0.025819223312 3.28753901561 -0.738226533608 -3.2035802533 0 -3.62912942667 0 -3.62860071888 3.62912942667 -90 -0.738226533608 0.425549173374 0.852097833135 150.038567 -119.961433 0.0416470768124 -8.35786811612e-09 -3.62676329339e-08 3.72182236871e-08 -102.976402358 0.225625056536
0.90550119483 0.02568185276 3.26984570184 -0.73434233318 -3.18631831231 0 -3.60960847652 0 -3.60939223299 3.60960847652 -90 -0.73434233318 0.423290164211 0.847604523074 150.0397353 -119.9602647 0.0198588012194 -3.3092095464e-09 -1.4357675437e-08 1.47341057281e-08 -102.977999607 0.10641267028
0.90550119483 0.0255673773 3.25510031305 -0.731104252213 -3.17193266115 0 -3.59333979796 0 -3.59338399078 3.59333979796 -90 -0.731104252213 0.421407136813 0.843858758115 150.040706756 -119.959293244 0.00885472523395 -1.22788315147e-09 -5.32667801401e-09 5.46637153537e-09 -102.979325402 0.0470179237389
0.90550119483 0.025471981083 3.24281182531 -0.728404987481 -3.15994413513 0 -3.57978172258 0 -3.58004297963 3.57978172258 -90 -0.728404987481 0.419837587447 0.840736359297 150.041514821 -119.958485179 0.00352552692317 -4.07774013195e-10 -1.76871654738e-09 1.81511440667e-09 -102.980426564 0.0185799812148
0.90550119483 0.025392484236 3.23257095974 -0.726155001272 -3.14995336277 0 -3.56848274305 0 -3.56892491058 3.56848274305 -90 -0.726155001272 0.418529380286 0.838133716981 150.042187171 -119.957812829 0.00117684336921 -1.13804088197e-10 -4.93549507656e-10 5.06500421662e-10 -102.981341635 0.00616387091503
0.90550119483 0.025326236863 3.22403658746 -0.724279597365 -3.14162748828 0 -3.55906652308 0 -3.55965946543 3.55906652308 -90 -0.724279597365 0.417439034802 0.835964402257 150.042746736 -119.957253264 0.000301686734985 -2.44313440462e-11 -1.0593601882e-10 1.08716785323e-10 -102.982102401 0.00157213768431
0.90550119483 0.025271030719 3.21692439061 -0.722716472564 -3.13468909983 0 -3.55121939354 0 -3.55193799275 3.55121939354 -90 -0.722716472564 0.416530293702 0.834156330486 150.043212531 -119.956787469 5.31728686774e-05 -3.60369903799e-12 -1.56226363214e-11 1.60328912548e-11 -102.982735119 0.000275939994089
0.90550119483 0.0252250256 3.21099740747 -0.721413668544 -3.12890699884 0 -3.54467992514 0 -3.54550324635 3.54467992514 -90 -0.721413668544 0.415772926299 0.832649389234 150.043600337 -119.956399663 5.85240183946e-06 -3.31068666397e-13 -1.43492164009e-12 1.47261948927e-12 -102.983261509 3.02656041008e-05
0.90550119483 0.025186688 3.20605814931 -0.720327859726 -3.12408850482 0 -3.53923023394 0 -3.54014082865 3.53923023394 -90 -0.720327859726 0.41514172912 0.831393455826 150.04392326 -119.95607674 4.0240156146e-07 -1.89684818978e-14 -8.21973632268e-14 8.43576609892e-14 -102.983699557 2.07491741198e-06
0.90550119483 0.02515474 3.20362897853 -0.719793819357 -3.12171873378 0 -3.53655002309 0 -3.53567205784 3.53655002309 -90 -0.719793819357 0.414831289306 0.830775744971 150.044082009 -119.955917991 3.2371557315e-08 -1.27605463818e-15 -5.52872653639e-15 5.67407750461e-15 -102.983914831 1.66514788138e-07
0.90731592603 0.026419257883 3.304990131 -0.733383637011 -3.22259339771 0 -3.64701605753 0 -3.68070217796 3.64701605753 -90 -0.733383637011 0.424422659818 0.847340635874 149.94124053 -120.05875947 0.185095019792 -6.42831843808e-08 -2.82469576787e-07 2.89691887364e-07 -102.820766175 1.01089272704
0.90731592603 0.026181881569 3.29670887861 -0.733331767928 -3.21411050733 0 -3.63816005583 0 -3.64780374504 3.63816005583 -90 -0.733331767928 0.424049548497 0.84710902381 149.961169188 -120.038830812 0.130550339228 -4.11295291463e-08 -1.80423610219e-07 1.8505225063e-07 -102.852513009 0.710566078668
0.90731592603 0.025984067974 3.28115125866 -0.731040150173 -3.19867550908 0 -3.62117464209 0 -3.62038487092 3.62117464209 -90 -0.731040150173 0.422499133015 0.844349126817 149.974301396 -120.025698604 0.0740956054897 -1.94299040701e-08 -8.50109007376e-08 8.72031001965e-08 -102.873318862 0.400010488127
0.90731592603 0.025819223312 3.26009778608 -0.726445931591 -3.17812918202 0 -3.59795216399 0 -3.59753338813 3.59795216399 -90 -0.726445931591 0.419822981974 0.839032332733 149.975538916 -120.024461084 0.0362797712981 -7.88335253969e-09 -3.44865824483e-08 3.53761593663e-08 -102.875057064 0.193296005788
0.90731592603 0.02568185276 3.24255184557 -0.722615771241 -3.16100620086 0 -3.57859835778 0 -3.57848881532 3.57859835778 -90 -0.722615771241 0.417592156921 0.834599897296 149.976567396 -120.023432604 0.0171434661622 -3.09388717729e-09 -1.35326614295e-08 1.38818306845e-08 -102.876498729 0.0903449196314
0.90731592603 0.0255673773 3.2279292757 -0.719422833247 -3.14673633103 0 -3.56246898351 0 -3.56261718425 3.56246898351 -90 -0.719422833247 0.415732652474 0.830904974299 149.977422539 -120.022577461 0.00751599581819 -1.12906985982e-09 -4.93788322683e-09 5.06532435886e-09 -102.877695351 0.0392509265074
0.90731592603 0.025471981083 3.21574314248 -0.716761263567 -3.13484427662 0 -3.54902700726 0 -3.54939002742 3.54902700726 -90 -0.716761263567 0.41418273064 0.82782502214 149.978133817 -120.021866183 0.00291256748162 -3.65062164875e-10 -1.59634174095e-09 1.63755292255e-09 -102.878689204 0.0150968010952
0.90731592603 0.025392484236 3.20558757611 -0.714542742541 -3.12493388832 0 -3.53782478546 0 -3.53836684504 3.53782478546 -90 -0.714542742541 0.412890897142 0.825257806376 149.978725609 -120.021274391 0.000932907637704 -9.77930882214e-11 -4.27561673825e-10 4.38603047859e-10 -102.879515084 0.00480591834129
0.90731592603 0.025326236863 3.19712428908 -0.712693596138 -3.11667499434 0 -3.52848920278 0 -3.52918047772 3.52848920278 -90 -0.712693596138 0.411814208437 0.823118051474 149.97921811 -120.02078189 0.000225167961758 -1.97669006184e-11 -8.64067088034e-11 8.86389092615e-11 -102.880201688 0.00115414220407
0.90731592603 0.025271030719 3.19007133174 -0.711152377935 -3.10979241868 0 -3.52070927503 0 -3.52152490711 3.52070927503 -90 -0.711152377935 0.410916856352 0.82133463905 149.979628065 -120.020371935 3.66049063659e-05 -2.6880962759e-12 -1.17478100313e-11 1.20514323838e-11 -102.880772719 0.000186850901897
0.90731592603 0.0252250256 3.1841937161 -0.709867847005 -3.10405682533 0 -3.51422581094 0 -3.51514508178 3.51422581094 -90 -0.709867847005 0.410168985604 0.819848265412 149.979969371 -120.020030629 3.68346457032e-06 -2.25680903655e-13 -9.86070252325e-13 1.01156673152e-12 -102.881247783 1.8737468165e-05
0.90731592603 0.025186688 3.17929559838 -0.708797277976 -3.0992770856 0 -3.50882279194 0 -3.50982843352 3.50882279194 -90 -0.708797277976 0.409545706335 0.818609484289 149.980253567 -120.019746433 2.33732315715e-07 -1.19306395961e-14 -5.21184554432e-14 5.34665865359e-14 -102.881643115 1.18550488624e-06
0.90731592603 0.02515474 3.17174620767 -0.706308626737 -3.09210197704 0 -3.50036353675 0 -3.50539780521 3.50036353675 -90 -0.706308626737 0.408261559714 0.81581221665 149.970922129 -120.029077871 1.23530486542e-08 -5.26546223549e-16 -2.29990968959e-15 2.35941517731e-15 -102.866728085 6.24972826286e-08
0.90731592603 0.025128116666 3.15857809999 -0.701509664238 -3.07969151128 0 -3.48553650315 0 -3.50170555374 3.48553650315 -90 -0.701509664238 0.405844991866 0.810448003541 149.949293667 -120.050706333 1.92487552519e-10 -7.17497012143e-18 -3.14990444696e-17 3.23058817979e-17 -102.832210222 9.61031413094e-10
0.90731592603 0.025105930555 3.15575521552 -0.70089433541 -3.07693648144 0 -3.48242297959 0 -3.49862863525 3.48242297959 -90 -0.70089433541 0.405486498145 0.809735864087 149.949447202 -120.050552798 2.08428619096e-17 -6.46747931657e-25 -2.83925322662e-24 2.91198244706e-24 -102.832426664 1.03860856698e-16
0.90731592603 0.025087442129 3.15340278775 -0.700381533336 -3.07464060493 0 -3.47982834631 0 -3.49606450708 3.47982834631 -90 -0.700381533336 0.405187741381 0.809142384259 149.949575097 -120.050424903 1.59589168736e-20 -4.12314605279e-28 -1.81005165753e-27 1.85641868571e-27 -102.832606907 7.93957469957e-20
0.90731592603 0.025072035108 3.15144241446 -0.699954178774 -3.07272736169 0 -3.47766613076 0 -3.49392771328 3.47766613076 -90 -0.699954178774 0.40493876907 0.808647796682 149.949681641 -120.050318359 1.94382006423e-23 -4.18257955661e-31 -1.83611879933e-30 1.8831547899e-30 -102.832757023 9.65752721721e-23
0.90731592603 0.025059195923 3.14980875853 -0.699598036462 -3.07113298355 0 -3.47586426992 0 -3.4921470375 3.47586426992 -90 -0.699598036462 0.40473128637 0.808235625785 149.949770402 -120.050229598 1.37737031725e-26 -2.46851815131e-34 -1.0836478083e-33 1.1114082918e-33 -102.832882059 6.83555160855e-26
0.90731592603 0.025048496603 3.14844737041 -0.699301241783 -3.06980432885 0 -3.47436270894 0 -3.49066313132 3.47436270894 -90 -0.699301241783 0.404558380089 0.807892139867 149.949844353 -120.050155647 5.71584046376e-30 -8.53291205682e-38 -3.74580493377e-37 3.8417652822e-37 -102.832986214 2.83398032562e-29
0.90731592603 0.025039580502 3.14777783323 -0.699155274762 -3.06915089058 0 -3.47362423376 0 -3.48942653587 3.47362423376 -90 -0.699155274762 0.404473343178 0.80772320975 149.949880717 -120.050119283 2.23543292219e-33 -2.77999689871e-41 -1.22036266699e-40 1.25162648844e-40 -102.833037427 1.10748994645e-32
0.90931088538 0.026704109459 3.30578085498 -0.72723411666 -3.22479729606 0 -3.64687005011 0 -3.68528508821 3.64687005011 -90 -0.72723411666 0.422072754045 0.840841762844 149.869941323 -120.130058677 0.349833862492 -1.58714413029e-07 -7.03792352776e-07 7.21466520865e-07 -102.708363676 1.91152494482
0.90931088538 0.026419257883 3.29515177615 -0.726789082565 -3.21399974288 0 -3.6354487851 0 -3.64618197853 3.6354487851 -90 -0.726789082565 0.421449042219 0.840143969088 149.891320735 -120.108679265 0.24066709722 -9.93380455145e-08 -4.39725223674e-07 4.50806430708e-07 -102.742023873 1.30940341553
0.90931088538 0.026181881569 3.27616708825 -0.723841427551 -3.19520178838 0 -3.61470209138 0 -3.61359102849 3.61470209138 -90 -0.723841427551 0.419500302999 0.836616504815 149.905381884 -120.094618116 0.132060785262 -4.52260278362e-08 -1.99623009119e-07 2.04682139084e-07 -102.764087056 0.711171131908
0.90931088538 0.025984067974 3.25113592896 -0.718414972951 -3.17076567396 0 -3.58709945033 0 -3.58642844561 3.58709945033 -90 -0.718414972951 0.416333776371 0.830333754535 149.906671868 -120.093328132 0.0646259614522 -1.82957313611e-08 -8.07436193391e-08 8.27905321055e-08 -102.765963988 0.34255628181
0.90931088538 0.025819223312 3.2302746475 -0.713890762881 -3.15040070074 0 -3.56409476536 0 -3.56379057717 3.56409476536 -90 -0.713890762881 0.413694064618 0.825095785702 149.907743088 -120.092256912 0.0315416733314 -7.40109518746e-09 -3.26583541114e-08 3.34864949894e-08 -102.767519127 0.165006068277
0.90931088538 0.02568185276 3.21288887951 -0.710119094553 -3.13342882486 0 -3.54492248104 0 -3.54492404274 3.54492248104 -90 -0.710119094553 0.411493656178 0.820729194655 149.908633225 -120.091366775 0.0147482061637 -2.87483404682e-09 -1.26839264492e-08 1.30056456519e-08 -102.768808865 0.0763151727381
0.90931088538 0.0255673773 3.19839979587 -0.706975004807 -3.11928486021 0 -3.5289443941 0 -3.52920079522 3.5289443941 -90 -0.706975004807 0.409659533891 0.817089250406 149.909373247 -120.090626753 0.00634595310951 -1.02996770716e-09 -4.54367386864e-09 4.65895117048e-09 -102.769879317 0.0325415345637
0.90931088538 0.025471981083 3.18632490748 -0.704354214698 -3.10749771571 0 -3.51562850381 0 -3.51609730397 3.51562850381 -90 -0.704354214698 0.408130788104 0.814055189016 149.909988704 -120.090011296 0.00238739572914 -3.23412265515e-10 -1.42652148241e-09 1.46272384215e-09 -102.770768333 0.0121513668801
0.90931088538 0.025392484236 3.17626204948 -0.702169727074 -3.09767474465 0 -3.50453136278 0 -3.50517718497 3.50453136278 -90 -0.702169727074 0.406856618126 0.811526267679 149.910500724 -120.089499276 0.000731181016406 -8.28632310222e-11 -3.65436519648e-10 3.74713619442e-10 -102.771507063 0.00369888624284
0.90931088538 0.025326236863 3.16787602243 -0.700348976831 -3.08948869303 0 -3.49528335371 0 -3.49607670984 3.49528335371 -90 -0.700348976831 0.405794660689 0.80941846097 149.910926804 -120.089073196 0.000165428101094 -1.56994047489e-11 -6.92222408869e-11 7.09802413073e-11 -102.772121191 0.000832696599054
0.90931088538 0.025271030719 3.16088745049 -0.698831446385 -3.08266681559 0 -3.48757640835 0 -3.48849272025 3.48757640835 -90 -0.698831446385 0.404909592759 0.807661697145 149.911281446 -120.088718554 2.47155623518e-05 -1.96109420223e-12 -8.64485851189e-12 8.86451026112e-12 -102.77263193 0.00012389790144
0.90931088538 0.0252250256 3.15506349079 -0.697566672117 -3.07698180151 0 -3.48115376594 0 -3.48217254867 3.48115376594 -90 -0.697566672117 0.404171964426 0.806197548102 149.911576684 -120.088423316 2.27680533751e-06 -1.50674149519e-13 -6.64046800836e-13 6.8092677963e-13 -102.773056823 1.13741968985e-05
0.90931088538 0.025186688 3.15021008734 -0.696512578679 -3.07224420937 0 -3.47580143378 0 -3.47690561388 3.47580143378 -90 -0.696512578679 0.403557224404 0.804977299576 149.911822508 -120.088177492 1.33601607494e-07 -7.36453808724e-15 -3.24502484729e-14 3.32754572014e-14 -102.773410396 6.6549535551e-07
0.90931088538 0.02515474 3.14616551245 -0.695634087716 -3.06829616006 0 -3.47134106658 0 -3.47251641484 3.47134106658 -90 -0.695634087716 0.40304490652 0.803960339486 149.912027216 -120.087972784 5.25740164381e-09 -2.41281620915e-16 -1.06297801666e-15 1.09001841668e-15 -102.773704689 2.61241046945e-08
0.90931088538 0.025128116666 3.14279498353 -0.69490195657 -3.06500608035 0 -3.46762403135 0 -3.46885868876 3.46762403135 -90 -0.69490195657 0.402617951 0.803112812858 149.912197705 -120.087802295 1.42109901405e-10 -5.44364216316e-18 -2.39786765093e-17 2.45888328577e-17 -102.773949689 7.04733119183e-10
0.90931088538 0.025105930555 3.13998617478 -0.694291808844 -3.0622643204 0 -3.4645264585 0 -3.46581054207 3.4645264585 -90 -0.694291808844 0.402262138101 0.802406499077 149.912339708 -120.087660292 1.36208076397e-17 -4.31576038333e-25 -1.89953722143e-24 1.9479482712e-24 -102.774153685 6.75240330272e-17
0.90931088538 0.025087442129 3.13764547689 -0.693783325748 -3.05997950192 0 -3.46194511774 0 -3.46327039087 3.46194511774 -90 -0.693783325748 0.401965615822 0.801817875418 149.912457994 -120.087542006 1.01992992955e-20 -2.6873651786e-28 -1.18261615013e-27 1.21276599994e-27 -102.774323563 5.04965251082e-20
0.90931088538 0.025072035108 3.13569487861 -0.693359571301 -3.05807547356 0 -3.45979397946 0 -3.46115357821 3.45979397946 -90 -0.693359571301 0.401718505906 0.801327335649 149.912556532 -120.087443468 1.21730647949e-23 -2.66814322878e-31 -1.17397381112e-30 1.20391255122e-30 -102.774465045 6.02052114494e-23
0.90931088538 0.025059195923 3.13406936858 -0.693006429758 -3.0564887744 0 -3.45800134983 0 -3.45938955361 3.45800134983 -90 -0.693006429758 0.401512575426 0.800918538619 149.912638624 -120.087361376 8.47191814726e-27 -1.54499826951e-34 -6.79698423403e-34 6.97036927462e-34 -102.77458289 4.1864260403e-26
0.90931088538 0.025048496603 3.13271476874 -0.692712136185 -3.05516651878 0 -3.4565074816 0 -3.45791952356 3.4565074816 -90 -0.692712136185 0.401340962819 0.80057786474 149.912707016 -120.087292984 3.44630692978e-30 -5.22891189443e-38 -2.30002151988e-37 2.35871105473e-37 -102.774681054 1.70191881282e-29
0.90931088538 0.025039580502 3.13204857007 -0.692567399338 -3.05451622757 0 -3.45577278975 0 -3.45669449165 3.45577278975 -90 -0.692567399338 0.401256562181 0.800410317718 149.912740648 -120.087259352 1.32389915696e-33 -1.67147767984e-41 -7.35121838397e-41 7.53885169264e-41 -102.774729321 6.53460933993e-33
0.91150097381 0.026704109459 3.28773323829 -0.719870695337 -3.20795337899 0 -3.62640668451 0 -3.64748651602 3.62640668451 -90 -0.719870695337 0.418453305517 0.832656762644 149.830658852 -120.169341148 0.322209039943 -1.51480277747e-07 -6.74925287958e-07 6.91715919346e-07 -102.647454668 1.74295256101
0.91150097381 0.026419257883 3.27311071656 -0.716724027895 -3.19367333269 0 -3.61028667329 0 -3.60878307508 3.61028667329 -90 -0.716724027895 0.416613340594 0.829011642619 149.831309315 -120.168690685 0.243559750235 -1.08946450828e-07 -4.85399502966e-07 4.97475891434e-07 -102.648446924 1.31032463512
0.91150097381 0.026181881569 3.24337674872 -0.710324292742 -3.16463603167 0 -3.57750744113 0 -3.57652526918 3.57750744113 -90 -0.710324292742 0.412871409454 0.821598255825 149.832629002 -120.167370998 0.114680917773 -4.22733799303e-08 -1.88319998727e-07 1.93006474665e-07 -102.650458144 0.605301312358
0.91150097381 0.025984067974 3.21859559633 -0.704988331125 -3.14043600062 0 -3.55018787117 0 -3.54964036618 3.55018787117 -90 -0.704988331125 0.409751870551 0.815417336023 149.833723378 -120.166276622 0.0563375720228 -1.7172229543e-08 -7.64888380829e-08 7.83928199837e-08 -102.652122211 0.292697885166
0.91150097381 0.025819223312 3.19794267606 -0.700539740559 -3.12026773637 0 -3.52741912186 0 -3.52723393884 3.52741912186 -90 -0.700539740559 0.407151385487 0.810264441899 149.834631884 -120.165368116 0.0273675101939 -6.91563270144e-09 -3.0799766233e-08 3.15666377312e-08 -102.653500789 0.140332411393
0.91150097381 0.02568185276 3.18073055762 -0.696831232497 -3.10345976582 0 -3.50844348031 0 -3.50856030042 3.50844348031 -90 -0.696831232497 0.404983714487 0.805968895515 149.835386617 -120.164613383 0.0126430701301 -2.65471602334e-09 -1.1821669643e-08 1.21160861762e-08 -102.654643963 0.0641272152031
0.91150097381 0.0255673773 3.16638619243 -0.69373987599 -3.08945237587 0 -3.49262928288 0 -3.49299781922 3.49262928288 -90 -0.69373987599 0.403176907005 0.802388258346 149.836013933 -120.163986067 0.00532891261252 -9.31939924096e-10 -4.14946363064e-09 4.25283193276e-09 -102.655592676 0.026786170324
0.91150097381 0.025471981083 3.15443190997 -0.69116309935 -3.07777903451 0 -3.47944998136 0 -3.48002831349 3.47944998136 -90 -0.69116309935 0.401670946851 0.799403691058 149.836535557 -120.163464443 0.00194099648758 -2.83420147922e-10 -1.26174437168e-09 1.29318505996e-09 -102.656380522 0.0096843926385
0.91150097381 0.025392484236 3.14446956191 -0.689015337556 -3.06805089306 0 -3.46846667412 0 -3.46921985847 3.46846667412 -90 -0.689015337556 0.400415781061 0.796916064434 149.836969445 -120.163030555 0.000566285366947 -6.91919792551e-11 -3.07978314002e-10 3.15655313134e-10 -102.657035138 0.00280832327855
0.91150097381 0.025326236863 3.13616729661 -0.687225225443 -3.0599438617 0 -3.45931353336 0 -3.46021244317 3.45931353336 -90 -0.687225225443 0.399369671659 0.794842704427 149.837330457 -120.162669543 0.000119557433284 -1.22310897302e-11 -5.44295459381e-11 5.57869007053e-11 -102.657579308 0.000589981308168
0.91150097381 0.025271030719 3.12924852851 -0.685733249869 -3.0531878314 0 -3.45168564961 0 -3.45270600794 3.45168564961 -90 -0.685733249869 0.398497818207 0.793114670096 149.837630907 -120.162369093 1.63659873179e-05 -1.39907105236e-12 -6.2244273054e-12 6.3797286319e-12 -102.658031843 8.04329492725e-05
0.91150097381 0.0252250256 3.12348274032 -0.684489787365 -3.0475576878 0 -3.44532889514 0 -3.44645046812 3.44532889514 -90 -0.684489787365 0.397771207342 0.791674478898 149.837881006 -120.162118994 1.38400796467e-06 -9.86478131921e-14 -4.38779003163e-13 4.4973171179e-13 -102.6584083 6.77856955663e-06
0.91150097381 0.025186688 3.11867781429 -0.683453464865 -3.04286581957 0 -3.44003147186 0 -3.44123739528 3.44003147186 -90 -0.683453464865 0.397165652293 0.790474206767 149.838089228 -120.161910772 7.52111149453e-08 -4.46462803005e-15 -1.98543190713e-14 2.03501181649e-14 -102.658721556 3.67304858519e-07
0.91150097381 0.02515474 3.11467363803 -0.682589790748 -3.03895587248 0 -3.43561686363 0 -3.43689308271 3.43561686363 -90 -0.682589790748 0.396660991158 0.789473901677 149.838262612 -120.161737388 2.77387243916e-09 -1.37083780104e-16 -6.09510943637e-16 6.2473669957e-16 -102.658982285 1.35137635094e-08
0.91150097381 0.025128116666 3.1113367752 -0.681870012341 -3.0356975439 0 -3.43193796197 0 -3.43327276307 3.43193796197 -90 -0.681870012341 0.396240418069 0.788640259771 149.838407004 -120.161592996 7.06519807621e-11 -2.91378453325e-18 -1.29534583475e-17 1.32771381469e-17 -102.659199336 3.43521162159e-10
0.91150097381 0.025105930555 3.10855602189 -0.681270162294 -3.03298224272 0 -3.42887216783 0 -3.43025578913 3.42887216783 -90 -0.681270162294 0.395889925118 0.787945520452 149.838527266 -120.161472734 3.80660671665e-18 -1.28459420438e-25 -5.69736467618e-25 5.84039060935e-25 -102.659380058 1.85625330088e-17
0.91150097381 0.025087442129 3.10623870381 -0.680770263185 -3.03071947286 0 -3.42631730986 0 -3.42774161572 3.42631730986 -90 -0.680770263185 0.395597837001 0.787366544856 149.838627437 -120.161372563 3.14706791564e-21 -8.92954746491e-29 -3.96560530421e-28 4.06489941421e-28 -102.659530552 1.52795891775e-20
0.91150097381 0.025072035108 3.10430758888 -0.680353663858 -3.02883381812 0 -3.42418824094 0 -3.42564645156 3.42418824094 -90 -0.680353663858 0.395354422824 0.786884046999 149.838710882 -120.161289118 3.45994298496e-24 -8.16705685853e-32 -3.62639199632e-31 3.71722181848e-31 -102.659655888 1.67813919062e-23
0.91150097381 0.025059195923 3.1026983151 -0.680006486162 -3.02726243014 0 -3.42241400269 0 -3.42390046763 3.42241400269 -90 -0.680006486162 0.395151572548 0.786481952855 149.838780397 -120.161219603 2.22905230011e-27 -4.37800672557e-35 -1.94366842377e-34 1.99236527679e-34 -102.659760283 1.08022828335e-26
0.91150097381 0.025048496603 3.10135724557 -0.67971716333 -3.02595293372 0 -3.42093546078 0 -3.42244547163 3.42093546078 -90 -0.67971716333 0.394982527068 0.786146865612 149.83883831 -120.16116169 8.27639574967e-31 -1.35249750714e-38 -6.00360334566e-38 6.15406614423e-38 -102.659847243 4.00838061237e-30
0.91150097381 0.025039580502 3.10069770118 -0.679574871334 -3.0253089175 0 -3.42020830652 0 -3.42123296823 3.42020830652 -90 -0.679574871334 0.394899389028 0.785982066348 149.838866788 -120.161133212 2.91134573017e-34 -3.95918044684e-42 -1.75718279515e-41 1.80123421885e-41 -102.659890001 1.40931825857e-33
0.9139022203 0.027045931351 3.27196348006 -0.706295462439 -3.19482264524 0 -3.60735055603 0 -3.65255559551 3.60735055603 -90 -0.706295462439 0.412527910787 0.817944104105 149.711964898 -120.288035102 0.60988260217 -3.87194581492e-07 -1.75141719415e-06 1.79370617212e-06 -102.466155534 3.2646238139
0.9139022203 0.026704109459 3.25956477803 -0.705713260254 -3.18225091235 0 -3.59402657878 0 -3.60663826252 3.59402657878 -90 -0.705713260254 0.411775666426 0.81706223279 149.736686782 -120.263313218 0.403501078783 -2.34263277772e-07 -1.0576386132e-06 1.08327260991e-06 -102.503737989 2.14965226857
0.9139022203 0.026419257883 3.23732483375 -0.702258732578 -3.16023615538 0 -3.56972971209 0 -3.56836676482 3.56972971209 -90 -0.702258732578 0.40949355671 0.81292843221 149.75273165 -120.24726835 0.208296970186 -9.99676983472e-08 -4.49805258104e-07 4.60780379453e-07 -102.528182739 1.0962332376
0.9139022203 0.026181881569 3.2079152633 -0.695975700136 -3.13150541155 0 -3.53731746336 0 -3.53646900479 3.53731746336 -90 -0.695975700136 0.405812051805 0.805646279579 149.753823551 -120.246176449 0.0995977579118 -3.94090721605e-08 -1.77300633012e-07 1.81627718114e-07 -102.529949142 0.514290779839
0.9139022203 0.025984067974 3.18340447872 -0.690737277819 -3.1075608144 0 -3.51030377997 0 -3.50988420416 3.51030377997 -90 -0.690737277819 0.402742965575 0.799575019006 149.754728491 -120.245271509 0.0490233520823 -1.60442955911e-08 -7.21741896968e-08 7.39360499953e-08 -102.531410316 0.249183099463
0.9139022203 0.025819223312 3.16297689014 -0.686370166866 -3.08760539089 0 -3.48778998234 0 -3.48772790629 3.48778998234 -90 -0.686370166866 0.400184591454 0.794513711654 149.755479363 -120.244520637 0.0236675857757 -6.4230336399e-09 -2.88901187445e-08 2.95955292583e-08 -102.532620573 0.118735946897
0.9139022203 0.02568185276 3.14595256542 -0.68272969439 -3.07097477317 0 -3.46902683241 0 -3.46926273961 3.46902683241 -90 -0.68272969439 0.398052059242 0.7902946285 149.756102886 -120.243897114 0.0107849349518 -2.43267458433e-09 -1.09405794169e-08 1.1207779961e-08 -102.533624003 0.053521078881
0.9139022203 0.0255673773 3.13176470693 -0.6796951283 -3.05711516718 0 -3.45338973335 0 -3.45387400594 3.45338973335 -90 -0.6796951283 0.396274566174 0.786777808256 149.75662096 -120.24337904 0.00444299785786 -8.3495545368e-10 -3.75459122013e-09 3.84631294975e-09 -102.534456628 0.0218514575773
0.9139022203 0.025471981083 3.11994085496 -0.67716574224 -3.04556497208 0 -3.44035802903 0 -3.44104930436 3.44035802903 -90 -0.67716574224 0.394793056944 0.78384648938 149.75705162 -120.24294838 0.00156195202028 -2.45167770306e-10 -1.10229130109e-09 1.12922754793e-09 -102.53514799 0.0076254660848
0.9139022203 0.025392484236 3.11008720467 -0.675057517852 -3.03593944762 0 -3.42949772998 0 -3.43036152958 3.42949772998 -90 -0.675057517852 0.393558282356 0.781403283359 149.757409752 -120.242590248 0.000432259366135 -5.67859279131e-11 -2.55265002425e-10 2.61505150643e-10 -102.535722381 0.00209763009777
0.9139022203 0.025326236863 3.10187552476 -0.673300384988 -3.027917927 0 -3.42044710333 0 -3.4214546881 3.42044710333 -90 -0.673300384988 0.392529176332 0.77936697309 149.757707668 -120.242292332 8.47458467635e-05 -9.31898681021e-12 -4.1880859765e-11 4.29051522928e-11 -102.536199821 0.000409235993591
0.9139022203 0.025271030719 3.09503224722 -0.671835913929 -3.02123315327 0 -3.41290465306 0 -3.41403206923 3.41290465306 -90 -0.671835913929 0.391671499794 0.777669836151 149.757955561 -120.242044439 1.05981143789e-05 -9.73275981453e-13 -4.37285844436e-12 4.47986388913e-12 -102.536596837 5.09717905157e-05
0.9139022203 0.0252250256 3.08932936972 -0.670615386993 -3.01566238848 0 -3.40661909666 0 -3.40784637971 3.40661909666 -90 -0.670615386993 0.390956708183 0.776255408477 149.758161878 -120.241838122 8.23935190344e-07 -6.30699394517e-14 -2.83300353729e-13 2.90236118489e-13 -102.536927088 3.94922855067e-06