TITLE = "Electromagnetic Field"
VARIABLES = X Y E ER EI EvR EvI EvR' EvI' Ev EvPhase EpR EpI Ep EpPhase EpToEvPhaseShift elConductivity Jr Ji J Jphase QJ
ZONE N=253, E=217, F=FEPOINT, ET=QUADRILATERAL
0.73378446997 0 0.126536039597 -0.057304849264 -0.11281632669 0 -0.145957407859 0 -0 0.145957407859 -90 -0.057304849264 0.0331410811696 0.0661980136428 149.957941235 -120.042058765 991.56949859 -0.000354356897031 -0.000697624092441 0.000782462896773 -116.928210039 7.93819272268
0.72527569629 0 0.133910162124 -0.0626298317535 -0.118344666914 0 -0.155038171328 0 -0 0.155038171328 -90 -0.0626298317535 0.0366935044138 0.0725881071522 149.657979233 -120.342020767 1059.01822086 -0.000451130471393 -0.000848684989204 0.000961239136109 -117.844307424 9.57845145055
0.71613210198 0 0.149076128467 -0.074062948409 -0.129349835824 0 -0.173895424709 0 -0 0.173895424709 -90 -0.074062948409 0.0445455888848 0.0864287192771 149.007333867 -120.992666133 1198.9417879 -0.000691060349616 -0.00120065693293 0.0013855385295 -119.738694507 13.4537434218
0.70630380643 0 0.167006602031 -0.0886625022908 -0.141483471461 0 -0.196629201328 0 -0 0.196629201328 -90 -0.0886625022908 0.0551457298663 0.104416520335 148.164896848 -121.835103152 1364.3479517 -0.00107716261096 -0.00170851080539 0.00202015877381 -122.003129684 19.2322016993
0.69574741918 0 0.18825649773 -0.107405352478 -0.154537321177 0 -0.22424630998 0 -0 0.22424630998 -90 -0.107405352478 0.0697089888038 0.128050917898 147.078194095 -122.921805905 1553.0057627 -0.00169695130869 -0.00242495773804 0.0029606475604 -124.710820846 27.8339751019
0.68443028583 0 0.213480218296 -0.131439613184 -0.168098040606 0 -0.258049984875 0 -0 0.258049984875 -90 -0.131439613184 0.0899519442689 0.159286216869 145.698158574 -124.301841426 1756.56649783 -0.0026752985911 -0.00339618104702 0.00432517331758 -127.913093519 40.48960358
0.67233561982 0 0.243446293801 -0.162039932648 -0.1814926024 0 -0.299727807395 0 -0 0.299727807395 -90 -0.162039932648 0.118235204995 0.200616181835 143.991347698 -126.008652302 1966.44499104 -0.00418737898765 -0.00465353674065 0.006263678637 -131.627654478 58.943400404
0.65946842657 0 0.279057807631 -0.20053790429 -0.193760805016 0 -0.351460131637 0 -0 0.351460131637 -90 -0.20053790429 0.157699326621 0.255162142386 141.951444146 -128.048555854 2173.22086658 -0.0064552136945 -0.00618767835773 0.00894821380396 -135.831998062 85.5618811597
0.64586193742 0 0.321380655641 -0.248238920976 -0.203674165983 0 -0.41604680499 0 -0 0.41604680499 -90 -0.248238920976 0.212372639006 0.326761933794 139.605671877 -130.394328123 2368.59699459 -0.0097407760581 -0.0079289635879 0.0125704958553 -140.460309347 123.634441152
0.63158402961 0 0.371669996975 -0.306393245179 -0.209741746049 0 -0.497041288753 0 -0 0.497041288753 -90 -0.306393245179 0.287299542704 0.420134749574 137.010992941 -132.989007059 2553.78920232 -0.014362048455 -0.00975347214271 0.0173773652311 -145.419258983 178.253813279
0.61674289632 0 0.431385271656 -0.376164426371 -0.210248520085 0 -0.598864770738 0 -0 0.598864770738 -90 -0.376164426371 0.388616250653 0.541014485335 134.245204675 -135.754795325 2727.32172912 -0.0206106775826 -0.0114301660017 0.023592082327 -150.599879254 256.355512952
0.6014909576 0 0.502184700757 -0.458565934154 -0.203399812017 0 -0.726844655108 0 -0 0.726844655108 -90 -0.458565934154 0.523444843091 0.696113611811 131.399511473 -138.600488527 2884.4882218 -0.0286709626664 -0.0126214850428 0.031358843991 -155.876684456 367.285213161
0.58602581055 0 0.585852254659 -0.554427707726 -0.187424628849 0 -0.887080690266 0 -0 0.887080690266 -90 -0.554427707726 0.699656061417 0.892961221042 128.567837857 -141.432162143 3024.81881057 -0.0385637789374 -0.0129435724815 0.0407193348059 -161.119726779 523.970585111
0.57058701551 0 0.684101572723 -0.664300449124 -0.160661514786 0 -1.08599598706 0 -0 1.08599598706 -90 -0.664300449124 0.925334472275 1.1394012514 125.835881462 -144.164118538 3148.51104384 -0.0500354034391 -0.0120229389481 0.0515081315919 -166.208946824 743.311388676
0.55544769745 0 0.798211729649 -0.788200556716 -0.121708134187 0 -1.32940719492 0 -0 1.32940719492 -90 -0.788200556716 1.20769906074 1.4424824958 123.274201299 -146.725798701 3256.04481954 -0.0624631079001 -0.00959556004114 0.0632487427398 -171.040518541 1045.90405251
0.54090048147 0 0.928489426972 -0.925209632152 -0.0696726366964 0 -1.62100721655 0 -0 1.62100721655 -90 -0.925209632152 1.55133457985 1.80662060649 120.934778175 -149.065221825 3348.11885079 -0.07480510495 -0.0056255337075 0.0750696900647 -175.530939332 1454.07442806
0.52723814445 0 1.07363320002 -1.07300319781 -0.00452667666924 0 -1.96036885243 0 -0 1.96036885243 -90 -1.07300319781 1.95584217576 2.23116704872 118.850519795 -151.149480205 3425.58122169 -0.0856474668019 -0.000404346799706 0.0856980032486 -4.1374290192 1987.29964846
0.51473046831 0 1.23021170828 -1.22751781229 0.0725076202391 0 -2.34096557488 0 -0 2.34096557488 -90 -1.22751781229 2.41347319512 2.70799462574 117.036821468 -152.963178532 3489.53867408 -0.0934027732792 0.00542298322216 0.0936022668376 176.733145668 2654.99051172
0.5036 0 1.39258471029 -1.38304869302 0.158637191923 0 -2.74911777451 0 -0 2.74911777451 -90 -1.38304869302 2.90775496644 3.22016062345 115.495540668 -154.504459332 3541.29309477 -0.0966635083262 0.0109521348662 0.0973145732745 173.544443589 3448.47773094
0.494 0 1.55351153107 -1.53297144881 0.249497721796 0 -3.16479743232 0 -0 3.16479743232 -90 -1.53297144881 3.41429515411 3.74283552416 114.219451444 -155.780548556 3582.30763979 -0.0946215365267 0.0152430779318 0.0958640380708 170.819679232 4336.31570693
0.486 0 1.63959158908 -1.61198293231 0.299619099711 0 -3.3900413775 0 -0 3.3900413775 -90 -1.61198293231 3.68966047722 4.02642315352 113.60012917 -156.39987083 3601.75034983 -0.0918871614995 0.0170790571362 0.0934609257449 169.470597376 4841.22174037
0.486 0.002 3.60665132342 -3.54913355348 0.641483747131 0 -7.45337141412 0 -7.1975241726 7.45337141412 -90 -3.54913355348 8.09485516125 8.8387252282 113.651421833 -156.348578167 3596.16067252 -0.233671861717 0.0421928770607 0.237451261805 169.665900142 29161.3692637
0.486 0.0044 7.45406329139 -7.35819549032 1.18811790433 0 -15.3956258455 0 -15.8283957073 15.3956258455 -90 -7.35819549032 16.5837437498 18.142941341 113.878781533 -156.121218467 3577.38676137 -0.538865562709 0.0866770612115 0.545831786609 170.618881968 106956.507543
0.486 0.0070912347858 11.6368834963 -11.5455937585 1.42922990733 0 -24.0051157171 0 -25.4925245475 24.0051157171 -90 -11.5455937585 25.4343456244 27.9325870939 114.357966724 -155.642033276 3540.98822748 -0.867092971952 0.107484487249 0.873967700334 172.684292657 247820.664844
0.486 0.0097824695716 16.0841073774 -16.0400321779 1.06877080382 0 -33.088021763 0 -35.1327059413 33.088021763 -90 -16.0400321779 34.1567925668 37.736554158 115.100995758 -154.899004242 3482.01562558 -1.18316039155 0.0792438359279 1.18644050882 175.926578597 457815.160209
0.486 0.012473704357 20.5927526243 -20.57471931 -0.158607763291 0 -42.1429401043 0 -44.7397827272 42.1429401043 -90 -20.57471931 41.984332341 46.7566935306 116.058955543 -153.941044457 3397.85189792 -1.47917311171 -0.0104966513723 1.48046671555 0.274067800022 726949.417367
0.486 0.015164939143 25.2214697234 -25.0697834078 -2.47113815259 0 -51.1616469847 0 -54.3046217081 51.1616469847 -90 -25.0697834078 48.6905088321 54.7686167924 117.201348644 -152.798651356 3282.28583173 -1.73890837565 -0.169621999908 1.74926275934 -174.633450268 1049104.85867
0.486 0.017856173929 27.5758679532 -27.2950486605 -3.92540596559 0 -55.6631383021 0 -63.8180863991 55.6631383021 -90 -27.2950486605 51.7377323365 58.4962616643 117.814587948 -152.185412052 3215.68374487 -1.85731077534 -0.267107008607 1.87641932154 -171.81618602 1222648.77263
0.49399259768 0.0019584382963 3.41743655211 -3.37481417513 0.532914203233 0 -6.95833762686 0 -6.38391836094 6.95833762686 -90 -3.37481417513 7.49125183009 8.21674912581 114.268942613 -155.731057387 3576.66205036 -0.240592855556 0.0375570006146 0.243563304814 171.005203079 26121.2963249
0.49398373482 0.0043086602212 7.06338048761 -6.99373229963 0.974642826155 0 -14.3741142867 0 -14.0410079971 14.3741142867 -90 -6.99373229963 15.3487571128 16.8679119159 114.489261521 -155.510738479 3557.69106 -0.554541005258 0.0760715552656 0.559894788357 171.925403446 95807.7354363
0.49397382399 0.0069444071863 11.0274958997 -10.9644886571 1.12906237303 0 -22.4147986448 0 -22.6183883746 22.4147986448 -90 -10.9644886571 23.5438610179 25.973340502 114.954420461 -155.045579539 3520.93069921 -0.89150224843 0.0906159098599 0.896502458689 173.92779161 221973.848704
0.4939639491 0.0095809136997 15.2418315736 -15.2143864582 0.724876583462 0 -30.900029444 0 -31.1799083556 30.900029444 -90 -15.2143864582 31.6249060275 35.0967586151 115.676190234 -154.323809766 3461.47865175 -1.21485440954 0.0566305794704 1.21698430786 177.072371113 409976.201957
0.49395411933 0.012218302886 19.512518225 -19.4884642481 -0.477892163853 0 -39.3623249616 0 -39.7181111478 39.3623249616 -90 -19.4884642481 38.8844327978 43.4982669897 116.607189801 -153.392810199 3376.84941849 -1.51645170184 -0.0381146194111 1.51834351395 1.27173981093 650696.646862
0.4939443482 0.0148567222 23.892247222 -23.7120186911 -2.67927934398 0 -47.7943834051 0 -48.2256272928 47.7943834051 -90 -23.7120186911 45.1151040611 50.9714999464 117.717960817 -152.282039183 3261.00481495 -1.77993145561 -0.201187075075 1.79346547982 -173.767519081 938336.310104
0.49393465554 0.017496348156 27.2386908459 -26.648741821 -5.41223021766 0 -53.6754827073 0 -56.6951553977 53.6754827073 -90 -26.648741821 48.2632524897 55.1386089278 118.911932589 -151.088067411 3125.37365991 -1.97049390695 -0.402019744355 2.01443600514 -168.675339022 1161424.26227
0.4939250703 0.020137391952 29.3142299588 -28.2217637498 -7.92818572728 0 -56.7724842473 0 -65.1194641378 56.7724842473 -90 -28.2217637498 48.84429852 56.4112882946 120.018906959 -149.981093041 2997.62006527 -2.10156479778 -0.590381103833 2.18291650024 -164.308644713 1287963.54951
0.50358387766 0.0019085639554 3.06365640007 -3.04414064903 0.336124397369 0 -6.04470446101 0 -5.53514077176 6.04470446101 -90 -3.04414064903 6.38082885837 7.07031140064 115.541416549 -154.458583451 3535.55639269 -0.245729796902 0.0267560804966 0.247263725864 173.710389533 20774.9376032
0.50356457356 0.0041990496118 6.33282325004 -6.30308104929 0.587999088006 0 -12.4886476091 0 -12.1760320397 12.4886476091 -90 -6.30308104929 13.0766466971 14.5175726268 115.747617361 -154.252382639 3516.25952761 -0.565868574178 0.0517168010009 0.568437882368 174.565510164 76201.230249
0.50354298392 0.0067682055038 9.88796508436 -9.86551234645 0.586475002366 0 -19.4793038795 0 -19.6189098066 19.4793038795 -90 -9.86551234645 20.0657788819 22.3617133623 116.184633874 -153.815366126 3478.90965219 -0.908246003764 0.0529751568044 0.910252369668 176.442692803 176529.535992
0.50352146537 0.0093390296937 13.666968166 -13.6572388594 0.105594846891 0 -26.8612518425 0 -27.0538493904 26.8612518425 -90 -13.6572388594 26.9668466894 30.2306646179 116.863756015 -153.136243985 3418.70615621 -1.23475732519 0.00848812639424 1.23562814423 83.9819593873 325906.894107
0.50350003691 0.011911793313 17.4932658498 -17.4460605666 -1.04859208875 0 -34.2296253069 0 -34.4751770734 34.2296253069 -90 -17.4460605666 33.1810332181 37.4915282414 117.740711073 -152.259288927 3333.41672053 -1.53706103283 -0.0931341904012 1.5412642165 -92.1521704639 516810.949289
0.50347872685 0.014486821077 21.4090188047 -21.166897071 -3.04315705106 0 -41.5789114073 0 -41.877366366 41.5789114073 -90 -21.166897071 38.5357543562 43.9708462043 118.788119993 -151.211880007 3217.35488902 -1.79909847628 -0.258600025552 1.81966977106 -172.000413611 744123.93241
0.50345757705 0.017064501694 25.4735684074 -24.7154445053 -6.02013222941 0 -48.9037213318 0 -49.2550258505 48.9037213318 -90 -24.7154445053 42.8835891024 49.5012360852 119.969439505 -150.030560495 3061.96028756 -1.99860161165 -0.485229794129 2.05953378251 -166.503076721 999856.640706
0.50343664913 0.019645300252 27.5513618368 -26.4309707635 -7.76990391121 0 -52.5590580367 0 -56.6029089307 52.5590580367 -90 -26.4309707635 44.7891541255 52.0086687068 120.588329103 -149.411670897 2973.14557821 -2.07951623667 -0.612773196687 2.1680768831 -163.576853994 1133564.78429
0.51470475986 0.0018507346831 2.70661674841 -2.70127527554 0.149663934445 0 -5.14745309278 0 -4.7012686959 5.14745309278 -90 -2.70127527554 5.29711702723 5.94675694878 117.078537629 -152.921462371 3483.73908861 -0.237395592904 0.0128857546145 0.237850310937 176.876098756 15995.701659
0.51467397681 0.0040719492211 5.59536572961 -5.5883006341 0.222228593859 0 -10.6365521316 0 -10.3433558713 10.6365521316 -90 -5.5883006341 10.8587807255 12.2136943109 117.268560745 -152.731439255 3464.20690277 -0.546201802858 0.0209135797269 0.546859449417 177.657290773 58674.0720671
0.51463954383 0.0065638761223 8.73751755068 -8.73215944967 0.0750901525899 0 -16.5949873028 0 -16.670527986 16.5949873028 -90 -8.73215944967 16.6700774554 18.8207498043 117.673379712 -152.326620288 3426.43986513 -0.875318724731 0.00683719676952 0.875850462176 85.6040341786 135915.830617
0.51460521108 0.0090585160295 12.0770597229 -12.0592113998 -0.473794378462 0 -22.8916949103 0 -22.9967547882 22.8916949103 -90 -12.0592113998 22.4179005318 25.4584901323 118.303743769 -151.696256231 3365.75990075 -1.18727600745 -0.0473274917636 1.18906077634 -91.671477277 250828.371873
0.51457100726 0.011556312154 15.4554530635 -15.3614690317 -1.57446163252 0 -29.1832467994 0 -29.3180790126 29.1832467994 -90 -15.3614690317 27.6087851669 31.5983252929 119.118944451 -150.881055549 3280.20170922 -1.47400891009 -0.151463293005 1.48306781385 -174.281778384 397412.606181
0.5145369758 0.014057795309 18.9052844719 -18.5833691425 -3.36264111068 0 -35.4658494145 0 -35.6307456226 35.4658494145 -90 -18.5833691425 32.1032083039 37.0983465398 120.093972965 -149.906027035 3164.45851522 -1.72066647926 -0.311030931834 1.75041835531 -169.888779281 571339.02663
0.51450318175 0.016563600936 22.4725464749 -21.640191106 -5.95333749467 0 -41.7358915019 0 -41.9311957349 41.7358915019 -90 -21.640191106 35.7825540072 41.8223496873 121.19549202 -148.80450798 3010.46619282 -1.90714537675 -0.523018701626 1.98006847985 -164.776392791 765910.300605
0.51446972175 0.019074489356 24.2911216237 -23.1141200069 -7.46120177629 0 -44.8656475004 0 -48.2160840442 44.8656475004 -90 -23.1141200069 37.4044457242 43.9727785543 121.772814054 -148.227185946 2922.73606633 -1.98244052189 -0.64102826902 2.08372719064 -162.053793515 867260.454789
0.52720254434 0.0017857427123 2.36222538251 -2.36082574351 -0.0169834760373 0 -4.31056677965 0 -3.92512641443 4.31056677965 -90 -2.36082574351 4.29358330361 4.90054234851 118.887606795 -151.112393205 3419.75901184 -0.217653325788 -0.00169673177711 0.217783366223 -4.02772273468 11973.2005068
0.52715991582 0.0039290946584 4.88388153518 -4.87992109092 -0.104030449755 0 -8.90857440951 0 -8.63704292012 8.90857440951 -90 -4.87992109092 8.80454395975 10.0679123847 119.059699583 -150.940300417 3400.11819937 -0.500388063478 -0.0111418367578 0.500803577292 -3.34841728886 43921.7955946
0.52711222475 0.0063341991468 7.6274604097 -7.61302445419 -0.37908093569 0 -13.9030673305 0 -13.9244427168 13.9030673305 -90 -7.61302445419 13.5239863948 15.5217992736 119.428897784 -150.571102216 3362.16117503 -0.800777112372 -0.0401501905852 0.80231017078 -89.5206633751 101740.004278
0.52706465172 0.0087431755733 10.5431262125 -10.4892200554 -0.983845252811 0 -19.1855116186 0 -19.2164472916 19.1855116186 -90 -10.4892200554 18.2016663658 21.0107718366 120.005353502 -149.994646498 3301.34478937 -1.08391428532 -0.101863201411 1.08950459696 -174.723243321 187696.372551
0.52701723422 0.011156661202 13.4903869539 -13.3252159424 -2.02862703468 0 -24.4696862168 0 -24.5106182061 24.4696862168 -90 -13.3252159424 22.4410591822 26.1028675894 120.752281918 -149.247718082 3215.96465477 -1.34240917856 -0.204278691935 1.3590379751 -171.437243311 297156.332939
0.52697003017 0.013575419284 16.4936588537 -16.0744034303 -3.62093828885 0 -29.753327229 0 -29.8047687969 29.753327229 -90 -16.0744034303 26.1323889401 30.6848126208 121.647261381 -148.352738619 3101.0594021 -1.56322114406 -0.351446753884 1.60384685097 -167.412114821 426594.193073
0.52692312769 0.016000363553 19.5874894603 -18.6694914355 -5.85173286984 0 -35.0344062407 0 -35.0969631683 35.0344062407 -90 -18.6694914355 29.1826733709 34.6484276919 122.660415939 -147.339584061 2949.10072351 -1.72917271544 -0.540225270987 1.81367746386 -162.718427662 570601.420279
0.5268766592 0.018432587353 21.1602470743 -19.9174747923 -7.13530016626 0 -37.6711806948 0 -40.3855411687 37.6711806948 -90 -19.9174747923 30.5358805286 36.4607592194 123.191690029 -146.808309971 2862.82585935 -1.79594999132 -0.643958359672 1.90820340632 -160.217590418 645330.837752
0.540855313 0.0017147399007 2.04286753167 -2.03534005448 -0.157770180533 0 -3.56412169701 0 -3.23550371804 3.56412169701 -90 -2.03534005448 3.40635151648 3.96884373355 120.966884786 -149.033115214 3342.32068567 -0.190082944098 -0.0147301268505 0.19078545421 -175.445565684 8759.8294728
0.54080122586 0.0037730118444 4.22395889274 -4.20395085636 -0.378975232585 0 -7.3668519796 0 -7.12042651212 7.3668519796 -90 -4.20395085636 6.98787674702 8.15648394495 121.119721922 -148.880278078 3322.71495962 -0.436719101751 -0.0395096345599 0.438809180068 -174.834363542 32136.1658924
0.5407407042 0.0060832250267 6.59773106442 -6.54889690437 -0.759745183018 0 -11.5004045161 0 -11.4826477689 11.5004045161 -90 -6.54889690437 10.7406593331 12.5820472006 121.450688499 -148.549311501 3284.82497553 -0.698071623201 -0.0808458639874 0.703261437603 -173.411098413 74441.3783055
0.54068030269 0.0083985549048 9.12035501799 -9.00389461588 -1.40652443357 0 -15.8761239381 0 -15.853408673 15.8761239381 -90 -9.00389461588 14.4695995046 17.0453603344 121.969272114 -148.030727886 3224.25415842 -0.943243722038 -0.147051626554 0.955399593133 -171.161792507 137300.198733
0.54062006603 0.010719851574 11.6686957764 -11.4098534054 -2.39541618009 0 -20.2586874891 0 -20.2315125091 20.2586874891 -90 -11.4098534054 17.863271309 21.1999946991 122.642844125 -147.357155875 3139.52585843 -1.16578318102 -0.244166476651 1.19211301564 -168.19660406 217228.50118
0.54056006509 0.013048133252 14.2605893498 -13.7282419459 -3.80967810523 0 -24.647096299 0 -24.6160578401 24.647096299 -90 -13.7282419459 20.8374181938 24.9574744469 123.451681054 -146.548318946 3025.98341357 -1.35474779196 -0.374874719709 1.40699823298 -164.558009931 311449.718806
0.54050040972 0.015384618973 16.9213084759 -15.9065407285 -5.7198038421 0 -29.0406344427 0 -29.0064415004 29.0406344427 -90 -15.9065407285 23.3208306006 28.2336676342 124.369484593 -145.630515407 2876.70674022 -1.49617190648 -0.536095239321 1.59098230995 -160.305659844 415744.706212
0.54044126735 0.017730767472 18.2701110465 -16.9514703032 -6.80458418941 0 -31.2347796534 0 -33.4023907987 31.2347796534 -90 -16.9514703032 24.430195464 29.7388786165 124.851019292 -145.148980708 2792.27248451 -1.55297635312 -0.62335326492 1.67376777007 -158.038896261 469671.361469
0.55539388425 0.0016391238896 1.75608109162 -1.73373446238 -0.270051111816 0 -2.92250087918 0 -2.64552093768 2.92250087918 -90 -1.73373446238 2.65244976736 3.16953087439 123.301131128 -146.698868872 3250.31947699 -0.158716067304 -0.0246054276088 0.160743326475 -170.9898815 6299.22263416
0.55532944471 0.0036067678267 3.63118234121 -3.57868974219 -0.597485704456 0 -6.04119378057 0 -5.82247844549 6.04119378057 -90 -3.57868974219 5.44370807611 6.51614914768 123.433916037 -146.566083963 3230.89982509 -0.364474133117 -0.060709525766 0.369795232323 -170.471379079 23110.4496021
0.555257325 0.0058158757983 5.67265692464 -5.56793286908 -1.05996822237 0 -9.4336488114 0 -9.39202050848 9.4336488114 -90 -5.56793286908 8.37368058902 10.0581063315 123.72501543 -146.27498457 3193.34245757 -0.582083348398 -0.110326328845 0.592939879873 -169.211225693 53537.1121413
0.55518530941 0.0080313993954 7.84230613341 -7.6412481163 -1.73443511697 0 -13.0280817149 0 -12.9725514453 13.0280817149 -90 -7.6412481163 11.293646598 13.6387654851 124.183172689 -145.816827311 3133.39708283 -0.785472542696 -0.177577967762 0.805982378176 -167.213469201 98727.5735045
0.55511344775 0.010254416325 10.0331238702 -9.66247850092 -2.66886086024 0 -16.6327827496 0 -16.563819465 16.6327827496 -90 -9.66247850092 13.9639218893 16.9845710867 124.780002242 -145.219997758 3049.75382573 -0.969243450921 -0.266709189986 1.00615659524 -164.57474125 156118.041108
0.55504182165 0.012486217522 12.2579124748 -11.6001530827 -3.92645445663 0 -20.2477313827 0 -20.1659047254 20.2477313827 -90 -11.6001530827 16.321276926 20.0276978494 125.498472774 -144.501527226 2938.10584874 -1.12460019834 -0.379238795396 1.18791630582 -161.330314568 223587.567247
0.55497056049 0.014728348627 14.534800165 -13.4137926085 -5.56094594782 0 -23.8732306978 0 -23.7792250819 23.8732306978 -90 -13.4137926085 18.3122847499 22.7038630877 126.315842755 -143.684157245 2792.16188823 -1.24065326566 -0.512288435841 1.34355828387 -157.529583522 297935.5919
0.55489986466 0.016982659325 15.6859628751 -14.2819059221 -6.47591393692 0 -25.6841525822 0 -27.404574859 25.6841525822 -90 -14.2819059221 19.2082386453 23.939615872 126.744909568 -143.255090432 2709.91305219 -1.28726378009 -0.583068915296 1.41355721017 -155.502663421 336247.37688
0.57052598024 0.0015604126856 1.50472886968 -1.46108863516 -0.353885771704 0 -2.38669236979 0 -2.15526265726 2.38669236979 -90 -1.46108863516 2.03280659809 2.50408211682 125.857622794 -144.142377206 3142.90385273 -0.127140390527 -0.0305999839781 0.130891201975 -166.197011273 4474.40800497
0.57045289277 0.0034336958004 3.11148780648 -3.01438641001 -0.759720262836 0 -4.93377831951 0 -4.74353992251 4.93377831951 -90 -3.01438641001 4.17405805667 5.15007356789 125.97016479 -144.02983521 3123.80185356 -0.291870984407 -0.0732175958983 0.301186677455 -165.77393375 16415.846502
0.57037107794 0.0055375042399 4.86152177973 -4.68536568518 -1.28010491829 0 -7.70646744484 0 -7.65342701415 7.70646744484 -90 -4.68536568518 6.42636252655 7.95509195942 126.220854938 -143.779145062 3086.7926521 -0.465874328793 -0.126559161088 0.483196821685 -164.675066873 38031.409694
0.57028933298 0.0076490496621 6.72175177054 -6.42077023317 -1.9682376258 0 -10.6468694298 0 -10.5755696263 10.6468694298 -90 -6.42077023317 8.67863180401 10.7983038053 126.617602289 -143.382397711 3027.77259609 -0.628109063865 -0.191541701313 0.657257266275 -162.925854734 70125.1088779
0.5702077106 0.0097696477076 8.59975330921 -8.10559680376 -2.84992129489 0 -13.5995622912 0 -13.5103902346 13.5995622912 -90 -8.10559680376 10.7496409963 13.4663554223 127.136200372 -142.863799628 2945.60823637 -0.774244994538 -0.270924690971 0.821014837533 -160.610147407 110841.946611
0.57012630069 0.01190087445 10.5046461806 -9.7144211392 -3.97232398821 0 -16.5652375391 0 -16.45867261 16.5652375391 -90 -9.7144211392 12.5929135509 15.9080850374 127.762201463 -142.237798537 2836.36678856 -0.897478953757 -0.365333340173 0.969859650956 -157.756689051 158601.495636
0.57004524951 0.014044617074 12.4492934046 -11.2163119339 -5.37584552762 0 -19.5449431951 0 -19.4215688506 19.5449431951 -90 -11.2163119339 14.1690976675 18.0751047092 128.476274183 -141.523725817 2694.32629731 -0.989599457149 -0.472173472801 1.09746719868 -154.405571883 211026.614695
0.56996478764 0.016203134165 13.6967923673 -11.9494766478 -6.6593483769 0 -21.222994854 0 -22.4006436671 21.222994854 -90 -11.9494766478 14.5636464771 18.8433633876 129.47126472 -140.52873528 2531.99924304 -0.993195387383 -0.549844704971 1.13663625259 -150.859403436 238519.412162
0.5698852709 0.018379126526 14.2323252921 -11.9805044326 -7.68287685443 0 -21.6035410982 0 -25.3979260692 21.6035410982 -90 -11.9805044326 13.9206642438 18.3662020965 130.716187273 -139.283812727 2366.23598946 -0.925992401365 -0.593821873513 1.10003924696 -147.32869492 239651.296354
0.58595932494 0.0014801247591 1.28814240701 -1.21938556867 -0.411201301226 0 -1.94862389367 0 -1.75629985683 1.94862389367 -90 -1.21938556867 1.53742259244 1.9628638029 128.584577659 -141.415422341 3019.35935654 -0.0979971415224 -0.0328109950803 0.103446370766 -161.150374958 3151.17950266
0.58587971273 0.0032571319517 2.66351904812 -2.51484151501 -0.869475850173 0 -4.02806394994 0 -3.86521701762 4.02806394994 -90 -2.51484151501 3.15858809976 4.03863534065 128.67732002 -141.32267998 3000.67352142 -0.224934282434 -0.0773104082393 0.238079886593 -160.823764885 11560.5005938
0.58579057592 0.0052534714822 4.16223724549 -3.90623049099 -1.4255171416 0 -6.29334464295 0 -6.23755027209 6.29334464295 -90 -3.90623049099 4.86782750135 6.24311944569 128.888188199 -141.111811801 2964.3955797 -0.358950672139 -0.130146775203 0.382182047968 -159.880228951 26784.5558894
0.58570145889 0.00725886261 5.7557652238 -5.34762350181 -2.11410297425 0 -8.69777085205 0 -8.62256942986 8.69777085205 -90 -5.34762350181 6.5836678778 8.48418299609 129.224169802 -140.775830198 2906.57400939 -0.483758900869 -0.190099481648 0.520255020405 -158.370220277 49382.5572061
0.58561241522 0.0092748646627 7.36459200468 -6.74310416332 -2.94429228932 0 -11.11547076 0 -11.021150252 11.11547076 -90 -6.74310416332 8.17117847064 10.597017377 129.665044217 -140.334955783 2826.26134079 -0.596024761882 -0.258802544674 0.650377438939 -156.365933443 78029.9829045
0.58552354077 0.011303345806 8.99524503805 -8.07236488185 -3.95076604692 0 -13.5476257952 0 -13.4345519855 13.5476257952 -90 -8.07236488185 9.59685974824 12.543577861 130.19875721 -139.80124279 2719.85457664 -0.690650201739 -0.33626078913 0.768836050406 -153.890402739 111568.830294
0.58543499607 0.013346543171 10.6568534936 -9.31192349824 -5.16357022895 0 -15.9957986842 0 -15.8644240883 15.9957986842 -90 -9.31192349824 10.8322284552 14.2879188761 130.809133614 -139.190866386 2582.52791858 -0.761716194607 -0.420266279177 0.87070766707 -150.975581675 148281.798952
0.58534703898 0.015407134377 12.3612209162 -10.4356513701 -6.60632210911 0 -18.4619764925 0 -18.31285469 18.4619764925 -90 -10.4356513701 11.8556543834 15.7977089364 131.475146002 -138.524853998 2410.16306151 -0.803225659165 -0.505942014881 0.95008030481 -147.66563847 185789.629429
0.58526007272 0.017488321554 13.2212916949 -10.9626378204 -7.38343154797 0 -19.6935504686 0 -20.782428604 19.6935504686 -90 -10.9626378204 12.3101189206 16.4870037419 131.817326446 -138.182673554 2315.38906606 -0.815859141649 -0.548207539298 0.983233937314 -145.927522829 204311.419897
0.60142097249 0.0013996786779 1.10351792508 -1.0085541874 -0.445030765102 0 -1.59554302245 0 -1.43605224854 1.59554302245 -90 -1.0085541874 1.15051225735 1.53045388164 131.411630167 -138.588369833 2879.20017245 -0.072864797821 -0.0319068921176 0.0796253583944 -155.95363746 2205.68359043
0.6013371738 0.0030801948976 2.28150605328 -2.07961854497 -0.932710381661 0 -3.29781249439 0 -3.15994979074 3.29781249439 -90 -2.07961854497 2.36510211273 3.15031797137 131.48562581 -138.51437419 2861.01457434 -0.167249107624 -0.0745150616416 0.183279373625 -155.723090231 8090.59143578
0.60124333096 0.0049687924948 3.56582519428 -3.22898058701 -1.504563341 0 -5.15359532565 0 -5.10024278173 5.15359532565 -90 -3.22898058701 3.64903198465 4.87398881272 131.658342442 -138.341657558 2825.63244223 -0.266921129597 -0.123507568487 0.29439651734 -154.925580392 18745.9040949
0.60114944639 0.0068677248406 4.93191195952 -4.41795649588 -2.18156491278 0 -7.12508688468 0 -7.05312142583 7.12508688468 -90 -4.41795649588 4.9435219719 6.63188141283 131.9357756 -138.0642244 2769.25812637 -0.359757738237 -0.176480634938 0.401088921669 -153.640291956 34558.5481653
0.60105557303 0.0087787963318 6.31152381183 -5.5675252498 -2.96071498975 0 -9.11013339992 0 -9.01974812515 9.11013339992 -90 -5.5675252498 6.14941841017 8.2976074615 132.301394135 -137.698605865 2691.08761406 -0.443278731256 -0.234278899705 0.501830317699 -151.929156928 54590.7040713
0.60096181097 0.010704168947 7.70942205273 -6.66167949152 -3.86719583935 0 -11.1102349832 0 -11.0016846803 11.1102349832 -90 -6.66167949152 7.2430391439 9.84325625622 132.745286118 -137.254713882 2588.04595616 -0.513813427084 -0.296554478639 0.593758378887 -149.810417442 78010.4840776
0.60086833292 0.012646431895 9.13217470896 -7.68270158945 -4.92317504737 0 -13.1272902078 0 -13.0008970914 13.1272902078 -90 -7.68270158945 8.20411516043 11.2424477131 133.254122884 -136.745877116 2457.37015751 -0.567501373375 -0.361683002157 0.673501544452 -147.309054655 103651.427568
0.60077542163 0.014608684466 10.5882654325 -8.61148774311 -6.14674863161 0 -15.1636423106 0 -15.0198067784 15.1636423106 -90 -8.61148774311 9.01689367903 12.4712437295 133.810691353 -136.189308647 2294.50378301 -0.600020654868 -0.426002206966 0.736431018858 -144.458933674 129824.239141
0.60068352488 0.016594633371 11.3211655577 -9.04778432398 -6.79806086513 0 -16.1805515602 0 -17.0613534503 16.1805515602 -90 -9.04778432398 9.38249069502 13.036958109 134.096665481 -135.903334519 2204.76463611 -0.610358899159 -0.457145325388 0.762846331676 -142.961362692 142710.179284
0.61667137812 0.0013203199958 0.947098284912 -0.827354283053 -0.458971774597 0 -1.31335107587 0 -1.18097072016 1.31335107587 -90 -0.827354283053 0.854379301271 1.18967190832 134.253249663 -135.746750337 2722.22881381 -0.0523864590494 -0.0288298307125 0.0598549583066 -150.726625501 1536.25267838
0.61658575028 0.0029056247441 1.95770491807 -1.70590793834 -0.956500363141 0 -2.7139699643 0 -2.59800766104 2.7139699643 -90 -1.70590793834 1.75746960116 2.44996805902 134.310084949 -135.689915051 2704.61359343 -0.120261868736 -0.0669528904592 0.137776400023 -150.590591896 5633.47526244