TITLE = "Electromagnetic Field"
VARIABLES = X Y E ER EI EvR EvI EvR' EvI' Ev EvPhase EpR EpI Ep EpPhase EpToEvPhaseShift elConductivity Jr Ji J Jphase QJ
ZONE N=297, E=261, F=FEPOINT, ET=QUADRILATERAL
0.872395897 0.0086094241406 1.31031009985 -0.383193175999 -1.25302655504 0 -1.45545757479 0 -1.42579780512 1.45545757479 -90 -0.383193175999 0.202431019747 0.433376658217 152.153667648 -117.846332352 0.000447705798689 -1.50705136641e-12 -4.92799846187e-12 5.15328755856e-12 -107.004370358 0.000384335853978
0.8724170168 0.0086027009886 1.30982487867 -0.383013293428 -1.25257416066 0 -1.45491661388 0 -1.42453460873 1.45491661388 -90 -0.383013293428 0.202342453218 0.433176235909 152.152911623 -117.847088377 0.000278806042342 -9.18959689327e-13 -3.00503730937e-12 3.14240928993e-12 -107.002632187 0.000239294545239
0.87243461664 0.0085970983619 1.30883771372 -0.382647388682 -1.25165376022 0 -1.45381604959 0 -1.42348214073 1.45381604959 -90 -0.382647388682 0.20216228937 0.432768547073 152.151373519 -117.848626481 4.48131234874e-05 -1.23859859744e-13 -4.05118710271e-13 4.23630067748e-13 -106.99909654 3.8403475404e-05
0.87244928317 0.0085924295062 1.30801521564 -0.382342633127 -1.25088685113 0 -1.45289907023 0 -1.42260522002 1.45289907023 -90 -0.382342633127 0.202012219105 0.432428983526 152.150091985 -117.849908015 4.25741470737e-06 -9.83965279024e-15 -3.21895663549e-14 3.36598714976e-14 -106.996151804 3.64370240936e-06
0.87246150528 0.0085885387931 1.30732989743 -0.382088784747 -1.25024782369 0 -1.45213503025 0 -1.4218745471 1.45213503025 -90 -0.382088784747 0.201887206554 0.432146136871 152.149024194 -117.850975806 2.38934095666e-07 -4.60867002116e-16 -1.50793149959e-15 1.57678654268e-15 -106.993698993 2.04264742712e-07
0.87247169037 0.0085852965322 1.30675886599 -0.381877323892 -1.24971534475 0 -1.45149840608 0 -1.42126571854 1.45149840608 -90 -0.381877323892 0.201783061322 0.431910516599 152.148134475 -117.851865525 8.26993728337e-09 -1.32999503463e-17 -4.35226484019e-17 4.55094452083e-17 -106.991655773 7.06337727072e-09
0.87248017795 0.0085825946481 1.30628305327 -0.381701161759 -1.24927164302 0 -1.45096793883 0 -1.42075840689 1.45096793883 -90 -0.381701161759 0.201696295807 0.431714225659 152.147393117 -117.852606883 1.80341893201e-10 -2.421925309e-19 -7.92638633102e-19 8.28814348759e-19 -106.989953637 1.53911414675e-10
0.87248725093 0.008580343078 1.30588657497 -0.381554398268 -1.24890191274 0 -1.45052591931 0 -1.42033567877 1.45052591931 -90 -0.381554398268 0.201624006576 0.431550690962 152.146775371 -117.853224629 1.1419587905e-17 -1.27689646995e-26 -4.17937947018e-26 4.37008894083e-26 -106.98853557 9.73955962832e-18
0.87249314508 0.0085784667695 1.3055561989 -0.381432121953 -1.24859381893 0 -1.45015759516 0 -1.41998342726 1.45015759516 -90 -0.381432121953 0.201563776223 0.431414440585 152.146260619 -117.853739381 4.25904332926e-21 -3.96584377568e-30 -1.29815454519e-29 1.35738144666e-29 -106.987354112 3.63047281411e-21
0.87249805687 0.0085769031791 1.30528090129 -0.381330243545 -1.24833708449 0 -1.44985067619 0 -1.4196898996 1.44985067619 -90 -0.381330243545 0.2015135917 0.431300918482 152.145831685 -117.854168315 1.91400399121e-24 -1.48441386302e-33 -4.85931089098e-33 5.08098286279e-33 -106.986369747 1.63078177255e-24
0.87250215003 0.0085756001872 1.30514550142 -0.381280139892 -1.24821081345 0 -1.44969972403 0 -1.41944530382 1.44969972403 -90 -0.381280139892 0.201488910587 0.43124508828 152.145620722 -117.854379278 6.3735112967e-28 -4.11732024635e-37 -1.34790226823e-36 1.40938418638e-36 -106.985885639 5.42833480372e-28
0.87253274722 0.0089819265481 1.33742414239 -0.390694380874 -1.27908601935 0 -1.48553233909 0 -1.48639471336 1.48553233909 -90 -0.390694380874 0.20644631974 0.441884808818 152.14775024 -117.85224976 0.000440689314565 -1.51172244264e-12 -4.94910227545e-12 5.17483535582e-12 -106.98557279 0.000394038740232
0.87255372837 0.0089747962569 1.33692554682 -0.390510301562 -1.27862090867 0 -1.48497647368 0 -1.48505969731 1.48497647368 -90 -0.390510301562 0.206355565009 0.441679654219 152.147002488 -117.852997512 0.000274284091714 -9.21364206452e-13 -3.01645068653e-12 3.15402723829e-12 -106.983849715 0.000245193681998
0.87257121265 0.0089688543475 1.33591117501 -0.390135860156 -1.27767463998 0 -1.48384558994 0 -1.48394738946 1.48384558994 -90 -0.390135860156 0.206170949961 0.441262339288 152.145481218 -117.854518782 4.38960573744e-05 -1.23634150169e-13 -4.04854199141e-13 4.23311167941e-13 -106.980344757 3.91729803724e-05
0.87258578289 0.0089639027562 1.33506600817 -0.389823993185 -1.27688617706 0 -1.48290334842 0 -1.48302060885 1.48290334842 -90 -0.389823993185 0.206017171354 0.440914756638 152.14421372 -117.85578628 4.15015488398e-06 -9.77308019122e-15 -3.20090017255e-14 3.34677368189e-14 -106.977425554 3.69799087786e-06
0.87259792476 0.0089597764302 1.33436179944 -0.389564219643 -1.27622918795 0 -1.48211825679 0 -1.48224839066 1.48211825679 -90 -0.389564219643 0.205889068837 0.440625228444 152.143157631 -117.856842369 2.3190380887e-07 -4.55715696453e-16 -1.49280294922e-15 1.56081315384e-15 -106.974993993 2.06369592703e-07
0.87260804298 0.0089563378251 1.33377502966 -0.389347822879 -1.27568174436 0 -1.48146409375 0 -1.48160494432 1.48146409375 -90 -0.389347822879 0.205782349399 0.440384042105 152.142277666 -117.857722334 7.99613474156e-09 -1.31002617351e-17 -4.29185771713e-17 4.48733923207e-17 -106.972968457 7.10789385734e-09
0.87261647483 0.0089534723208 1.33328610238 -0.389167548153 -1.27522557265 0 -1.48091901162 0 -1.48106878679 1.48091901162 -90 -0.389167548153 0.205693438963 0.440183113481 152.14154444 -117.85845556 1.73760442319e-10 -2.3770126581e-19 -7.78832040334e-19 8.14298046967e-19 -106.971281044 1.54315470381e-10
0.87262350137 0.0089510844006 1.33287869691 -0.389017358268 -1.2748454522 0 -1.48046481483 0 -1.48062202201 1.48046481483 -90 -0.389017358268 0.205619362634 0.44001571488 152.140933471 -117.859066529 1.07746797596e-17 -1.22671587764e-26 -4.01963348369e-26 4.20265238389e-26 -106.969875235 9.55406880075e-18
0.87262935682 0.0089490944671 1.3325392183 -0.388892227794 -1.27452870316 0 -1.48008634677 0 -1.48024974109 1.48008634677 -90 -0.388892227794 0.205557643607 0.439876245886 152.140424367 -117.859575633 3.99841323251e-21 -3.7905392629e-30 -1.24215325795e-29 1.29870195725e-29 -106.968703982 3.54273279241e-21
0.87263423637 0.0089474361891 1.33225633047 -0.388787969758 -1.2742647514 0 -1.47977096926 0 -1.47993952288 1.47977096926 -90 -0.388787969758 0.205506217865 0.439760040266 152.140000141 -117.859999859 1.78804807369e-24 -1.41168316236e-33 -4.62633868192e-33 4.8369268573e-33 -106.96772812 1.58320717376e-24
0.87263830265 0.0089460542908 1.33211719063 -0.388736693864 -1.27413492404 0 -1.47961584932 0 -1.4796810189 1.47961584932 -90 -0.388736693864 0.205480925275 0.439702888107 152.139791495 -117.860208505 5.92728982513e-28 -3.89760012859e-37 -1.27737646106e-36 1.33551625939e-36 -106.967248197 5.24521332013e-28
0.8726796552 0.0093505767803 1.3914534652 -0.405591400162 -1.33102897832 0 -1.5454587915 0 -1.54618985955 1.5454587915 -90 -0.405591400162 0.214429813175 0.458785931894 152.13541122 -117.86458878 0.000428221459661 -1.52515035401e-12 -5.00500902705e-12 5.23222725865e-12 -106.947411241 0.000414499966804
0.8727004948 0.0093430401811 1.39092828401 -0.40539904376 -1.33053856925 0 -1.5448733036 0 -1.54478352677 1.5448733036 -90 -0.40539904376 0.214334734346 0.458571440128 152.134679759 -117.865320241 0.000266237195373 -9.28698789352e-13 -3.04773619178e-12 3.18609141385e-12 -106.945718966 0.000257648756497
0.87271786113 0.0093367596816 1.38985981744 -0.405007762456 -1.32954082445 0 -1.54368214594 0 -1.54361179771 1.54368214594 -90 -0.405007762456 0.214141321487 0.458135128383 152.133191647 -117.866808353 4.2250657379e-05 -1.23567119393e-13 -4.05601307913e-13 4.2400621981e-13 -106.942276648 4.08175698637e-05
0.87273233308 0.009331525932 1.38896957448 -0.404681866212 -1.32870946662 0 -1.54268967944 0 -1.54263550589 1.54268967944 -90 -0.404681866212 0.213980212817 0.457771719239 152.131951802 -117.868048198 3.95713716143e-06 -9.67575591643e-15 -3.17658657603e-14 3.32067855279e-14 -106.939409585 3.81716320069e-06
0.87274439303 0.009327164474 1.38822781258 -0.404410406638 -1.32801674099 0 -1.54186274513 0 -1.54182203308 1.54186274513 -90 -0.404410406638 0.213846004138 0.457469007783 152.130918767 -117.869081233 2.19274850451e-07 -4.47407227209e-16 -1.46908107126e-15 1.53569941315e-15 -106.937021425 2.11247986498e-07
0.87275444299 0.0093235299256 1.38760974987 -0.404184273446 -1.32743951786 0 -1.5411737148 0 -1.54114421092 1.5411737148 -90 -0.404184273446 0.213734196938 0.457216837426 152.130058025 -117.869941975 7.50651855824e-09 -1.27692603198e-17 -4.19338496635e-17 4.38349400992e-17 -106.93503203 7.22396078973e-09
0.87276281796 0.0093205011353 1.38709474623 -0.40399588639 -1.32695853063 0 -1.54059957783 0 -1.54057940907 1.54059957783 -90 -0.40399588639 0.213641047203 0.457006756889 152.129340824 -117.870659176 1.62049943829e-10 -2.30172498848e-19 -7.55960240107e-19 7.90224863041e-19 -106.933374713 1.55809712182e-10
0.8727697971 0.0093179771433 1.38666561204 -0.403838937408 -1.32655773187 0 -1.54012117046 0 -1.54010877556 1.54012117046 -90 -0.403838937408 0.213563438597 0.456831732956 152.128743214 -117.871256786 9.64915241233e-18 -1.14074328318e-26 -3.74683528261e-26 3.9166403456e-26 -106.931993971 9.26486910739e-18
0.87277561305 0.0093158738166 1.38630801993 -0.403708173152 -1.32622374478 0 -1.53972252003 0 -1.53971660506 1.53972252003 -90 -0.403708173152 0.213498775255 0.456685908104 152.128245247 -117.871754753 3.54607491142e-21 -3.49083492783e-30 -1.1466678648e-29 1.19862698046e-29 -106.930843601 3.40239188164e-21
0.87278045968 0.0093141210444 1.38601004987 -0.403599224063 -1.32594543974 0 -1.5393903376 0 -1.53938981294 1.5393903376 -90 -0.403599224063 0.213444897857 0.456564410171 152.127830301 -117.872169699 1.57055991225e-24 -1.28762491921e-33 -4.22983781134e-33 4.42148256056e-33 -106.929885127 1.50597659336e-24
0.87278449853 0.0093126604009 1.38586350385 -0.403545644279 -1.32580856424 0 -1.53922696547 0 -1.5391174979 1.53922696547 -90 -0.403545644279 0.213418401226 0.456504658841 152.127626218 -117.872373782 5.16023282524e-28 -3.52366950082e-37 -1.15757993393e-36 1.21002228691e-36 -106.929413746 4.94537617389e-28
0.87280301031 0.0097282459404 1.47314422261 -0.428064003578 -1.40957976343 0 -1.63606460796 0 -1.6075706352 1.63606460796 -90 -0.428064003578 0.226484844536 0.484287286601 152.117082511 -117.882917489 0.00161462439245 -7.29264859328e-12 -2.40140955394e-11 2.50970019739e-11 -106.892591723 0.00175199171165
0.87282783286 0.0097187202263 1.45555741198 -0.423182782834 -1.39268213105 0 -1.61655561164 0 -1.60579841945 1.61655561164 -90 -0.423182782834 0.22387348059 0.478751506996 152.120220211 -117.879779789 0.000866082457088 -3.69678169911e-12 -1.21701253343e-11 1.27192040998e-11 -106.902317081 0.000929019968682
0.87284851831 0.009710782131 1.44444309142 -0.420050654694 -1.38201774168 0 -1.60422350315 0 -1.60432189534 1.60422350315 -90 -0.420050654694 0.222205761467 0.475203068423 152.12138909 -117.87861091 0.000258669822722 -9.35093955397e-13 -3.07626487246e-12 3.21524610603e-12 -106.906497879 0.000269933524345
0.87286575619 0.0097041670516 1.44332110636 -0.419642984156 -1.38096898237 0 -1.6029727334 0 -1.60309168234 1.6029727334 -90 -0.419642984156 0.222003751027 0.474748252117 152.119933141 -117.880066859 4.07016921793e-05 -1.23355928512e-13 -4.05901345951e-13 4.24231787375e-13 -106.903120462 4.2399855749e-05
0.87288012109 0.0096986544853 1.44238627488 -0.419303435659 -1.38009512158 0 -1.60193060159 0 -1.60206666025 1.60193060159 -90 -0.419303435659 0.221835480011 0.474369428386 152.118720113 -117.881279887 3.77633110101e-06 -9.56808153707e-15 -3.14892969255e-14 3.29108513279e-14 -106.900307413 3.92785360954e-06
0.87289209184 0.0096940606801 1.44160736179 -0.419020602665 -1.37936698201 0 -1.60106228615 0 -1.60121258307 1.60106228615 -90 -0.419020602665 0.22169530414 0.474053875161 152.117709438 -117.882290562 2.07541262503e-07 -4.38787063443e-16 -1.44429991654e-15 1.50948223196e-15 -106.897964218 2.15587001801e-07
0.87290206747 0.009690232509 1.4409583382 -0.418784992477 -1.37876024543 0 -1.60033876987 0 -1.60050092693 1.60033876987 -90 -0.418784992477 0.221578524439 0.473791004156 152.116867339 -117.883132661 7.05579607405e-09 -1.2436534632e-17 -4.09409464318e-17 4.27881841979e-17 -106.896012265 7.32127359602e-09
0.87291038049 0.0096870423664 1.44041753574 -0.418588709327 -1.37825466526 0 -1.59973589676 0 -1.59990793223 1.59973589676 -90 -0.418588709327 0.221481231501 0.473572007907 152.116165679 -117.883834321 1.51366223488e-10 -2.22765576701e-19 -7.3341870238e-19 7.6650346716e-19 -106.894386127 1.56916496387e-10
0.87291730801 0.0096843839143 1.43996690772 -0.418425182306 -1.3778333772 0 -1.59923354838 0 -1.59941380608 1.59923354838 -90 -0.418425182306 0.221400171178 0.473389556459 152.115581023 -117.884418977 8.66755367787e-18 -1.06168930815e-26 -3.49566588095e-26 3.65333624573e-26 -106.893031349 8.97229313427e-18
0.87292308094 0.0096821685375 1.43959140639 -0.418288937417 -1.3774823178 0 -1.59881494968 0 -1.59900205938 1.59881494968 -90 -0.418288937417 0.221332631875 0.473237543174 152.115093853 -117.884906147 3.15624245394e-21 -3.21921646491e-30 -1.06001807577e-29 1.10782309646e-29 -106.891902605 3.26476863083e-21
0.87292789172 0.0096803223901 1.43927850175 -0.418175418622 -1.37718977592 0 -1.59846613235 0 -1.59865895451 1.59846613235 -90 -0.418175418622 0.221276356427 0.473110885329 152.11468791 -117.88531209 1.38527364312e-24 -1.17669809925e-33 -3.87483521987e-33 4.0495639692e-33 -106.890962153 1.43197241844e-24
0.8729319007 0.009678783934 1.43912460708 -0.418119590466 -1.37704589505 0 -1.59829457494 0 -1.59837304593 1.59829457494 -90 -0.418119590466 0.221248679886 0.473048595222 152.114488256 -117.885511744 4.51361844549e-28 -3.1933206837e-37 -1.0516020258e-36 1.09901771299e-36 -106.890499637 4.6631727411e-28
0.87296196663 0.010092426106 1.49958526643 -0.435224500019 -1.43503843781 0 -1.66538458438 0 -1.66634803764 1.66538458438 -90 -0.435224500019 0.230346146569 0.492422295042 152.109722237 -117.890277763 0.00159145418895 -7.30798258838e-12 -2.40957069308e-11 2.51795508936e-11 -106.87208359 0.00178903380991
0.87298660168 0.010082419377 1.4988922318 -0.434974482069 -1.43439005584 0 -1.66461203853 0 -1.66449218073 1.66461203853 -90 -0.434974482069 0.230221982696 0.492143236685 152.108881837 -117.891118163 0.00105151299061 -4.68676197201e-12 -1.54536916583e-11 1.61487571412e-11 -106.870129683 0.00118161258603
0.87300713089 0.010074080436 1.49748211666 -0.434465864831 -1.43307076394 0 -1.66304014409 0 -1.66294596811 1.66304014409 -90 -0.434465864831 0.229969380155 0.491575535915 152.107171943 -117.892828057 0.000249864225074 -9.34420628339e-13 -3.08183593914e-12 3.22038134261e-12 -106.866154802 0.00028021222505
0.87302423857 0.010067131319 1.49630724995 -0.434042276707 -1.43197150907 0 -1.66173049114 0 -1.66165769004 1.66173049114 -90 -0.434042276707 0.229758982074 0.491102730366 152.105747428 -117.894252572 3.89385930837e-05 -1.22075110401e-13 -4.02702351729e-13 4.20798691996e-13 -106.862844424 4.35904172755e-05
0.87303849496 0.010061340387 1.49532835776 -0.433689467831 -1.43105557514 0 -1.66063929827 0 -1.6605842863 1.66063929827 -90 -0.433689467831 0.229583723128 0.4907089202 152.104560607 -117.895439393 3.57448499366e-06 -9.36777411061e-15 -3.09078815122e-14 3.22963227553e-14 -106.860087175 3.99525951717e-06
0.87305037529 0.010056514611 1.49451272658 -0.433395585905 -1.43029237341 0 -1.65973009777 0 -1.65968989533 1.65973009777 -90 -0.433395585905 0.229437724355 0.490380879671 152.103571781 -117.896428219 1.94609850315e-07 -4.25562757473e-16 -1.40430130145e-15 1.46736705627e-15 -106.857790438 2.17228799736e-07
0.87306027557 0.010052493131 1.4938331129 -0.433150771633 -1.4296564261 0 -1.65897251989 0 -1.65894464728 1.65897251989 -90 -0.433150771633 0.22931609379 0.490107606273 152.102747894 -117.897252106 6.56266813472e-09 -1.19638613837e-17 -3.94840359248e-17 4.1256796854e-17 -106.855877165 7.31717667827e-09
0.8730685258 0.010049141898 1.49326682257 -0.432946820244 -1.42912650717 0 -1.65834126644 0 -1.65832366134 1.65834126644 -90 -0.432946820244 0.229214759272 0.489879943356 152.102061414 -117.897938586 1.39740098182e-10 -2.12697688281e-19 -7.02032263464e-19 7.33545958498e-19 -106.854283237 1.55658026461e-10
0.87307540099 0.010046349203 1.49279494965 -0.43277690219 -1.42868493187 0 -1.65781526226 0 -1.65780621048 1.65781526226 -90 -0.43277690219 0.229130330395 0.489690268679 152.101489412 -117.898510588 7.64265720905e-18 -9.68150880696e-27 -3.19567558052e-26 3.33911065128e-26 -106.852955291 8.49990176892e-18
0.87308113032 0.010044021957 1.4924017503 -0.43263533347 -1.42831697217 0 -1.65737695714 0 -1.65737502738 1.65737695714 -90 -0.43263533347 0.22905998497 0.4895322383 152.101012789 -117.898987211 2.75288904791e-21 -2.90375190748e-30 -9.58536241542e-30 1.00155359481e-29 -106.851848893 3.05927823907e-21
0.87308590476 0.010042082586 1.49207410174 -0.432517379609 -1.42801035091 0 -1.65701172272 0 -1.65701572639 1.65701172272 -90 -0.432517379609 0.229001371814 0.48940056784 152.100615634 -117.899384366 1.19535272419e-24 -1.05004883841e-33 -3.46643063638e-33 3.62198088877e-33 -106.850927051 1.32748570107e-24
0.87308988345 0.010040466443 1.49191295669 -0.43245937052 -1.42785954644 0 -1.65683209215 0 -1.65671632145 1.65683209215 -90 -0.43245937052 0.228972545701 0.489335812787 152.100420303 -117.899579697 3.85676349507e-28 -2.82175075937e-37 -9.31561201199e-37 9.7335972961e-37 -106.850473686 4.28057770905e-28
0.87312237499 0.010455971246 1.55220140404 -0.449420058417 -1.48571547978 0 -1.72372650488 0 -1.72490930184 1.72372650488 -90 -0.449420058417 0.238011025098 0.508554462877 152.094610591 -117.905389409 0.00155277327673 -7.36435711133e-12 -2.43451384436e-11 2.54346143716e-11 -106.830606402 0.00187047251763
0.87314680788 0.010445489684 1.55147755128 -0.449160926742 -1.48503761865 0 -1.72291965415 0 -1.72297124754 1.72291965415 -90 -0.449160926742 0.2378820355 0.508265093932 152.093788462 -117.906211538 0.00102471740776 -4.71804286638e-12 -1.55975395589e-11 1.62954964495e-11 -106.828693225 0.0012339152891
0.87316716863 0.010436755048 1.55000473456 -0.448633768186 -1.48365834911 0 -1.72127796409 0 -1.72135654854 1.72127796409 -90 -0.448633768186 0.237619614987 0.50767641674 152.092115754 -117.907884246 0.000241814936733 -9.34174769618e-13 -3.0890747524e-12 3.22723824954e-12 -106.824801173 0.000290597924834
0.87318413592 0.010429476185 1.54877763095 -0.448194735495 -1.48250912615 0 -1.71991016425 0 -1.72001120671 1.71991016425 -90 -0.448194735495 0.237401038094 0.507186137925 152.090722243 -117.909277757 3.73293818274e-05 -1.20889107942e-13 -3.99830678362e-13 4.17706560885e-13 -106.821559719 4.47813532642e-05
0.87319827532 0.010423410465 1.54775521073 -0.447829058718 -1.48155155436 0 -1.71877051874 0 -1.7188902555 1.71877051874 -90 -0.447829058718 0.237218964381 0.506777769394 152.089561271 -117.910438729 3.39130976532e-06 -9.18042795234e-15 -3.03687345049e-14 3.17260212813e-14 -106.818859843 4.06206897307e-06
0.87321005816 0.010418355699 1.54690330899 -0.447524455589 -1.4807536568 0 -1.7178209442 0 -1.71795624554 1.7178209442 -90 -0.447524455589 0.237067287403 0.506437599057 152.088593997 -117.911406003 1.82965640145e-07 -4.13272060162e-16 -1.36729732422e-15 1.42838931613e-15 -106.816610874 2.18869142176e-07
0.87321987719 0.010414143394 1.54619347018 -0.447270707962 -1.48008879641 0 -1.71702972171 0 -1.71717798447 1.71702972171 -90 -0.447270707962 0.236940925298 0.506154218489 152.087788075 -117.912211925 6.12228402472e-09 -1.152855178e-17 -3.81465007613e-17 3.98505111146e-17 -106.814737378 7.31568218681e-09
0.87322805972 0.01041063314 1.5456019967 -0.447059313939 -1.47953478741 0 -1.71637043607 0 -1.71652948948 1.71637043607 -90 -0.447059313939 0.236835648656 0.505918134928 152.087116569 -117.912883431 1.29439213201e-10 -2.03506312608e-19 -6.73444354038e-19 7.03521273639e-19 -106.813176574 1.54529412371e-10
0.87323487849 0.010407707928 1.54510914266 -0.446883195422 -1.47907314161 0 -1.71582107711 0 -1.71598911581 1.71582107711 -90 -0.446883195422 0.2367479355 0.505721444963 152.086557048 -117.913442952 6.77145415543e-18 -8.86146546572e-27 -2.93263002797e-26 3.06358871529e-26 -106.811876213 8.07335247601e-18
0.8732405608 0.010405270251 1.54469845501 -0.446736458867 -1.47868845255 0 -1.71536330522 0 -1.71553883133 1.71536330522 -90 -0.446736458867 0.236674852674 0.505557567584 152.086090829 -117.913909171 2.41360301045e-21 -2.63011999318e-30 -8.70476320701e-30 9.0934286449e-30 -106.810792797 2.87557993813e-21
0.87324529606 0.010403238854 1.54435624595 -0.446614202189 -1.47836790271 0 -1.71498186301 0 -1.71516361306 1.71498186301 -90 -0.446614202189 0.236613960305 0.505421028817 152.085702342 -117.914297658 1.03721527652e-24 -9.4131423851e-34 -3.1155904913e-33 3.25468554446e-33 -106.809890089 1.23497599582e-24
0.87324924211 0.010401546023 1.55176250668 -0.448581960667 -1.48551028666 0 -1.72319199006 0 -1.71485094415 1.72319199006 -90 -0.448581960667 0.2376817034 0.507659700786 152.083175366 -117.916824634 2.34016035342e-28 -1.76890646562e-37 -5.85505140278e-37 6.11642558282e-37 -106.803145914 2.78487329994e-28
0.87325253049 0.01040013533 1.56994666909 -0.453450274245 -1.50303539298 0 -1.74335230659 0 -1.7145903956 1.74335230659 -90 -0.453450274245 0.240316913606 0.513195255413 152.077567582 -117.922432418 1.76846669404e-32 -1.13198124254e-41 -3.75213770588e-41 3.91917324156e-41 -106.78802106 2.17939870669e-32
0.8732631626 0.010828342098 1.63224806562 -0.470994656448 -1.56281725781 0 -1.812484107 0 -1.78499923578 1.812484107 -90 -0.470994656448 0.249666849183 0.533075512459 152.072641843 -117.927358157 0.00448596926047 -2.68033943677e-11 -8.89369055728e-11 9.28880784735e-11 -106.771513986 0.00597583534749
0.8732922349 0.010815196249 1.61479512134 -0.466230763385 -1.54602454117 0 -1.79312773694 0 -1.78257521198 1.79312773694 -90 -0.466230763385 0.247103195765 0.5276657259 152.076423956 -117.923576044 0.00263086305375 -1.46916759537e-11 -4.87327026293e-11 5.08991336811e-11 -106.781887322 0.00346156565663
0.87331646183 0.010804241374 1.60355275387 -0.463100010068 -1.53522618871 0 -1.78065510437 0 -1.78055570717 1.78065510437 -90 -0.463100010068 0.245428915663 0.524115423916 152.077892747 -117.922107253 0.000999238912227 -4.74430005396e-12 -1.57263005857e-11 1.64263492978e-11 -106.786249601 0.00128518867692
0.87333665093 0.010795112311 1.60201805939 -0.462554892939 -1.53378762291 0 -1.77894455767 0 -1.77887314424 1.77894455767 -90 -0.462554892939 0.245156934767 0.523506406081 152.076256902 -117.923743098 0.000234102788277 -9.32590695001e-13 -3.09206621924e-12 3.22964400108e-12 -106.782442436 0.000300477585757
0.87335347519 0.010787504759 1.60073939865 -0.462100898542 -1.53258899349 0 -1.77751938583 0 -1.77747125684 1.77751938583 -90 -0.462100898542 0.244930392345 0.522999180729 152.074894125 -117.925105875 3.57826092404e-05 -1.19484840488e-13 -3.96238377552e-13 4.13861695373e-13 -106.779271615 4.58449558648e-05
0.8733674954 0.010781165132 1.59967402132 -0.461722756773 -1.53159025634 0 -1.7763319383 0 -1.77630318984 1.7763319383 -90 -0.461722756773 0.244741681957 0.522576693404 152.073758776 -117.926241224 3.21601943095e-06 -8.9759956918e-15 -2.9771365891e-14 3.10950616717e-14 -106.776630522 4.11385188477e-06
0.87337917891 0.01077588211 1.59878632708 -0.46140776832 -1.5307580591 0 -1.77534253441 0 -1.77532992045 1.77534253441 -90 -0.46140776832 0.244584475309 0.522224759734 152.072812859 -117.927187141 1.71917262944e-07 -4.00342915943e-16 -1.32803439697e-15 1.38706527501e-15 -106.774430487 2.19616216443e-07
0.87338891517 0.010771479591 1.59804666364 -0.461145367485 -1.53006461791 0 -1.77451812353 0 -1.7745189457 1.77451812353 -90 -0.461145367485 0.244453505611 0.521931577687 152.07202474 -117.92797526 5.70858991938e-09 -1.10821020826e-17 -3.67663509235e-17 3.8400231134e-17 -106.772597731 7.28419616733e-09
0.87339702871 0.010767810825 1.59743033717 -0.460926763049 -1.52948679236 0 -1.77383118185 0 -1.77384319119 1.77383118185 -90 -0.460926763049 0.244344389495 0.521687326839 152.071368075 -117.928631925 1.19857048415e-10 -1.94263394256e-19 -6.44557438503e-19 6.73195826304e-19 -106.771070854 1.52792797181e-10
0.87340379 0.010764753521 1.59691677233 -0.46074463614 -1.52900529941 0 -1.77325877624 0 -1.77328010263 1.77325877624 -90 -0.46074463614 0.244253476833 0.521483831075 152.070820924 -117.929179076 6.00230417408e-18 -8.09685119596e-27 -2.68664099209e-26 2.80599909094e-26 -106.769798748 7.64005520611e-18
0.87340942441 0.010762205767 1.59648882582 -0.460592892802 -1.52860407114 0 -1.77278179894 0 -1.77281088987 1.77278179894 -90 -0.460592892802 0.244177727802 0.521314282404 152.070365014 -117.929634986 2.11798770548e-21 -2.37901369514e-30 -7.89438688214e-30 8.24506275034e-30 -106.768738865 2.6938054746e-21
0.87341411975 0.010760082639 1.59613222373 -0.460466461072 -1.52826972837 0 -1.77238434044 0 -1.77241989866 1.77238434044 -90 -0.460466461072 0.244114612072 0.521173014434 152.069985123 -117.930014877 9.0117414122e-25 -8.43000343247e-34 -2.79751224568e-33 2.92176753277e-33 -106.767855769 1.14540464305e-24
0.87341803254 0.010758313365 1.59583506641 -0.460361115173 -1.52799111648 0 -1.77205313759 0 -1.77209408589 1.77205313759 -90 -0.460361115173 0.244062021103 0.521055305966 152.069668572 -117.930331428 1.55696080722e-28 -1.21305105382e-37 -4.02570577971e-37 4.20449786625e-37 -106.767119955 1.97777699416e-28
0.87342129319 0.01075683897 1.59568891854 -0.460309306318 -1.52785408884 0 -1.77189024549 0 -1.77182258463 1.77189024549 -90 -0.460309306318 0.244036156647 0.520997417072 152.069512885 -117.930487115 1.61598755195e-32 -1.04867802976e-41 -3.48032067083e-41 3.63488093202e-41 -106.766758078 2.05160605742e-32
0.87343604841 0.011186809291 1.65789713954 -0.47777479137 -1.58756220859 0 -1.84091594156 0 -1.8424148622 1.84091594156 -90 -0.47777479137 0.253353732968 0.540792817831 152.064073345 -117.935926655 0.00440238574478 -2.66742080352e-11 -8.86313804583e-11 9.25582856788e-11 -106.749441354 0.00604814283573
0.87346485837 0.011173102464 1.656955903 -0.477442796203 -1.58667918293 0 -1.83986692878 0 -1.83989478099 1.83986692878 -90 -0.477442796203 0.253187745843 0.540421747251 152.063129864 -117.936870136 0.00306648002647 -1.78996616721e-11 -5.94792005309e-11 6.21141993417e-11 -106.74724575 0.00421043737649
0.87348886667 0.011161680108 1.65504052059 -0.476767336605 -1.58488221159 0 -1.83773222849 0 -1.83779524365 1.83773222849 -90 -0.476767336605 0.252850016901 0.539666777585 152.061210044 -117.938789956 0.000961320439789 -4.69997852273e-12 -1.56220402195e-11 1.63137358736e-11 -106.74277863 0.00131671474283
0.87350887359 0.011152161478 1.65344473851 -0.476204847176 -1.58338499531 0 -1.83595372943 0 -1.83604599748 1.83595372943 -90 -0.476204847176 0.252568734121 0.539038058393 152.059610817 -117.940389183 0.000222938931212 -9.14499093834e-13 -3.04036043302e-12 3.1749175799e-12 -106.73905853 0.000304710710531
0.87352554602 0.011144229286 1.65211517752 -0.475736379192 -1.58213749609 0 -1.83447193759 0 -1.83458854799 1.83447193759 -90 -0.475736379192 0.252334441503 0.538514418816 152.058278562 -117.941721438 3.3617208585e-05 -1.15575733681e-13 -3.84318398719e-13 4.01320826028e-13 -106.73596018 4.58610033165e-05
0.87353943971 0.011137619126 1.65100738984 -0.475346179066 -1.58109804019 0 -1.83323731412 0 -1.83337418426 1.83323731412 -90 -0.475346179066 0.252139273923 0.53807825619 152.057168653 -117.942831347 2.9774426855e-06 -8.55506120826e-15 -2.84522674429e-14 2.97106163473e-14 -106.733379423 4.05508927481e-06
0.87355101779 0.011132110659 1.65008435382 -0.475021142875 -1.5802319107 0 -1.83220859726 0 -1.83236233769 1.83220859726 -90 -0.475021142875 0.251976686559 0.53771492735 152.05624394 -117.94375606 1.57136251898e-07 -3.76680727148e-16 -1.25292587282e-15 1.30832406612e-15 -106.731229629 2.13705182823e-07
0.87356066619 0.01112752027 1.6493152494 -0.474750372306 -1.57951020266 0 -1.83135143729 0 -1.83151921782 1.83135143729 -90 -0.474750372306 0.251841234623 0.537412253101 152.055473491 -117.944526509 5.15975370545e-09 -1.03106078204e-17 -3.42992661439e-17 3.58154781863e-17 -106.729438709 7.00877732179e-09
0.87356870652 0.011123694946 1.64867438608 -0.474524792803 -1.57890881873 0 -1.83063720178 0 -1.83081667744 1.83063720178 -90 -0.474524792803 0.25172838305 0.537160091704 152.054831553 -117.945168447 1.07215614637e-10 -1.78863033721e-19 -5.95060337541e-19 6.2136047993e-19 -106.727946679 1.45487325002e-10
0.8735754068 0.011120507176 1.64814036743 -0.474336851932 -1.57840768754 0 -1.83004204421 0 -1.83023126835 1.83004204421 -90 -0.474336851932 0.251634356672 0.536950002183 152.054296679 -117.945703321 5.04011162504e-18 -6.99678527975e-27 -2.32783572633e-26 2.43071389928e-26 -106.726703606 6.82611783555e-18
0.87358099036 0.011117850701 1.64769539138 -0.474180267877 -1.57799010881 0 -1.82954612395 0 -1.82974345615 1.82954612395 -90 -0.474180267877 0.251556015141 0.536774963527 152.053850996 -117.946149004 1.75204413252e-21 -2.02515880702e-30 -6.73810875034e-30 7.03586418399e-30 -106.725667896 2.37081358319e-21
0.87358564333 0.011115636971 1.64732459397 -0.47404980131 -1.57764213671 0 -1.82913287518 0 -1.82933696573 1.82913287518 -90 -0.47404980131 0.251490738464 0.53662911952 152.053479629 -117.946520371 7.34600363201e-25 -7.07117786032e-34 -2.35283137527e-33 2.45679301238e-33 -106.724804943 9.9326907936e-25
0.8735895208 0.011113792197 1.64701560594 -0.473941092801 -1.57735216582 0 -1.82878851237 0 -1.82899823772 1.82878851237 -90 -0.473941092801 0.251436346551 0.536507597397 152.053170182 -117.946829818 1.25230152977e-28 -1.00395511019e-37 -3.34063988872e-37 3.48823773015e-37 -106.724085911 1.69213251878e-28