TITLE = "Electromagnetic Field"
VARIABLES = X Y E ER EI EvR EvI EvR' EvI' Ev EvPhase EpR EpI Ep EpPhase EpToEvPhaseShift elConductivity Jr Ji J Jphase QJ
ZONE N=278, E=243, F=FEPOINT, ET=QUADRILATERAL
0.87498772987 0.030917837528 4.47336859364 -1.13791457205 -4.32621971255 0 -4.9610054908 0 -5.03456078479 4.9610054908 -90 -1.13791457205 0.634785778249 1.30299752784 150.845031806 -119.154968194 163.898286362 -0.000136043095728 -0.000517220129656 0.000534812477806 -104.73657315 1639.88648195
0.87568738554 0.029865526216 4.39062637159 -1.1220782637 -4.24482144257 0 -4.86912130765 0 -4.84757321277 4.86912130765 -90 -1.1220782637 0.624299865078 1.2840608119 150.910388569 -119.089611431 167.217040841 -0.000134586136556 -0.000509130508219 0.000526619171573 -104.808312943 1611.11705918
0.87638704122 0.028813214907 4.222856359 -1.08884467062 -4.08006277051 0 -4.68280516528 0 -4.6617069461 4.68280516528 -90 -1.08884467062 0.602742394768 1.24454113097 151.033702719 -118.966297281 173.073408148 -0.00013065000589 -0.000489571728493 0.000506705241961 -104.943500512 1542.90163292
0.87708669689 0.027760903601 4.05609988282 -1.0534969464 -3.91689650594 0 -4.49759907679 0 -4.47696030648 4.49759907679 -90 -1.0534969464 0.58070257085 1.20294315169 151.136635228 -118.863364772 176.073460255 -0.00012417268477 -0.000461697529427 0.000478104207953 -105.055149278 1448.81578664
0.87778635255 0.026708592299 3.8929475992 -1.01662448089 -3.75785978868 0 -4.31638886404 0 -4.29333155898 4.31638886404 -90 -1.01662448089 0.558529075351 1.15994850668 151.216444287 -118.783555713 173.792856642 -0.000112489018136 -0.000415856119557 0.000430801761799 -105.138746653 1318.40590605
0.87846354524 0.025690066297 3.74374573159 -0.98095002337 -3.61294447693 0 -4.15067341031 0 -4.11666130512 4.15067341031 -90 -0.98095002337 0.537728933376 1.11866684628 151.270075139 -118.729924861 164.814140106 -9.11046271907e-05 -0.000335607820793 0.000347753754168 -105.190521247 1157.22810904
0.87902787248 0.024841294626 3.60886283217 -0.947154599526 -3.48235394107 0 -4.00086494612 0 -3.97023360238 4.00086494612 -90 -0.947154599526 0.518511005048 1.07979420947 151.30207553 -118.69792447 149.5503527 -6.44798291646e-05 -0.000237084789242 0.000245696654932 -105.215724442 976.018755474
0.87949814518 0.024133984898 3.49701171595 -0.918128669236 -3.37433410964 0 -3.87663938025 0 -3.84876358023 3.87663938025 -90 -0.918128669236 0.502305270609 1.04655188294 151.317129952 -118.682870048 131.712368054 -4.46342884947e-05 -0.000164039151301 0.000170003126087 -105.221208359 807.10447271
0.87989003909 0.023544560123 3.44163076673 -0.903515145553 -3.32091594538 0 -3.81513223626 0 -3.74792218446 3.81513223626 -90 -0.903515145553 0.494216290885 1.02984919305 151.321657616 -118.678342384 121.661551944 -3.56522200472e-05 -0.00013104155102 0.000135804892725 -105.219957359 720.529733857
0.87479102493 0.032308174807 4.67942827013 -1.17091826708 -4.53056280689 0 -5.1892048845 0 -5.26418336596 5.1892048845 -90 -1.17091826708 0.658642077617 1.34345039901 150.642225925 -119.357774075 154.844502235 -0.000136644900079 -0.000528711797784 0.000546084236939 -104.490932244 1695.3188214
0.87547465724 0.031245441023 4.55537508395 -1.1501832965 -4.40777189773 0 -5.05167430211 0 -5.07513960755 5.05167430211 -90 -1.1501832965 0.643902404389 1.31815626836 150.759960225 -119.240039775 160.270694156 -0.000135921816867 -0.000520846128442 0.000538290227224 -104.626902287 1661.94013215
0.87615828954 0.030182707241 4.40833074179 -1.12370372967 -4.26270206577 0 -4.88851060538 0 -4.88719203176 4.88851060538 -90 -1.12370372967 0.625808539613 1.28621497288 150.886911294 -119.113088706 166.386250301 -0.000134115727102 -0.000508743928806 0.000526125457228 -104.769511976 1616.0244853
0.87684192184 0.029119973461 4.24010902982 -1.0906001947 -4.09744878751 0 -4.70171055215 0 -4.70033949795 4.70171055215 -90 -1.0906001947 0.604261764645 1.24681307891 151.011734856 -118.988265144 172.225945046 -0.000130224563349 -0.000489261828295 0.000506296346266 -104.906007822 1547.8804106
0.87752555413 0.028057239685 4.07288995827 -1.05536618909 -3.93377878874 0 -4.51600752895 0 -4.5145808048 4.51600752895 -90 -1.05536618909 0.582228740209 1.20531707528 151.116042942 -118.883957058 175.204786807 -0.000123784265865 -0.000461413115665 0.000477728869304 -105.019019984 1453.59484891
0.87820918643 0.026994505911 3.9092720218 -1.01858983452 -3.7742378179 0 -4.33429585301 0 -4.3299146901 4.33429585301 -90 -1.01858983452 0.560058035104 1.16240737344 151.19708817 -118.80291183 172.91408429 -0.00011214135527 -0.000415570519258 0.000430435451146 -105.104025233 1322.7322951
0.87887086893 0.025965894 3.75963314889 -0.982990340449 -3.62885176441 0 -4.16810878436 0 -4.15221704564 4.16810878436 -90 -0.982990340449 0.539257019955 1.12119063445 151.251767236 -118.748232764 163.955955454 -9.0822750353e-05 -0.000335343450879 0.000347424891363 -105.157162036 1160.96347017
0.87942227102 0.025108717405 3.62434591587 -0.94925211914 -3.49782781892 0 -4.01786318914 0 -4.00491570853 4.01786318914 -90 -0.94925211914 0.520035370221 1.08236616744 151.284659233 -118.715340767 148.761402149 -6.42839671035e-05 -0.00023688913688 0.000245456536474 -105.183666549 979.187889301
0.87988177277 0.024394403573 3.51215258027 -0.920266025238 -3.38944281446 0 -3.89326711754 0 -3.8827057099 3.89326711754 -90 -0.920266025238 0.503824303078 1.04915613027 151.300421958 -118.699578042 131.028010465 -4.4507351584e-05 -0.00016392259558 0.000169857381788 -105.190282085 809.853507716
0.88026469089 0.023799142045 3.43663829095 -0.899810550013 -3.31674845067 0 -3.80935551687 0 -3.78123947842 3.80935551687 -90 -0.899810550013 0.492607066196 1.02582689672 151.301180361 -118.698819639 115.902070773 -3.22657783682e-05 -0.000118911112901 0.000123210948007 -105.178537195 685.333398247
0.88058378933 0.02330309077 3.3563159084 -0.87695506514 -3.23972316418 0 -3.72003478692 0 -3.69694480191 3.72003478692 -90 -0.87695506514 0.480311622737 0.999874712874 151.290302496 -118.709697504 96.1894017056 -2.06923203916e-05 -7.64380591503e-05 7.91893241974e-05 -105.146265742 542.752813861
0.88084970469 0.022889714707 3.31797495331 -0.866583335516 -3.20280987781 0 -3.67746008753 0 -3.6268800342 3.67746008753 -90 -0.866583335516 0.474650209714 0.98805844917 151.289334201 -118.710665799 87.4887414223 -1.64082879984e-05 -6.064347735e-05 6.28240659313e-05 -105.139994751 481.579930744
0.87529960166 0.032637682284 4.69703067549 -1.17214690538 -4.54842369664 0 -5.20844917007 0 -5.30393184954 5.20844917007 -90 -1.17214690538 0.660025473432 1.34519974592 150.616559687 -119.383440313 154.044530136 -0.00013609140867 -0.000528084211894 0.000545338381429 -104.451074563 1699.23042654
0.87596716553 0.031564600802 4.61310586891 -1.15752118677 -4.46551618382 0 -5.11529420642 0 -5.11399148027 5.11529420642 -90 -1.15752118677 0.649778022595 1.32742998707 150.693287293 -119.306712707 157.688024588 -0.000135339405745 -0.000522085961337 0.000539343366418 -104.533688495 1676.93599298
0.87663472939 0.030491519322 4.44301165966 -1.12677830723 -4.29775300262 0 -4.92647751411 0 -4.92511997754 4.92647751411 -90 -1.12677830723 0.62872451149 1.29032032415 150.840224514 -119.159775486 164.750951488 -0.000133176586152 -0.000507945413319 0.00052511440475 -104.692642098 1625.4127726
0.87730229326 0.029418437845 4.27390635547 -1.0939344859 -4.1315314998 0 -4.73873186215 0 -4.73731667452 4.73873186215 -90 -1.0939344859 0.607200362358 1.25115419303 150.968035815 -119.031964185 170.553887965 -0.000129370628099 -0.000488603138723 0.000505440610609 -104.831693229 1557.38692437
0.87796985712 0.02834535637 4.10578156286 -1.05892793095 -3.96687456573 0 -4.55205684364 0 -4.55058084068 4.55205684364 -90 -1.05892793095 0.585182277913 1.20986275001 151.075062717 -118.924937283 173.4849215 -0.000122998978788 -0.00046078928175 0.000476923244764 -104.947367532 1462.67237665
0.87863742097 0.027272274898 3.94125116722 -1.02234430407 -3.80634483638 0 -4.36936344441 0 -4.3649116828 4.36936344441 -90 -1.02234430407 0.563018608027 1.16712403526 151.158547561 -118.841452439 171.166484524 -0.000111432263011 -0.000414928832637 0.000429631500237 -105.035122269 1330.87908734
0.87928354974 0.026233649488 3.79075533521 -0.986895618081 -3.66003505212 0 -4.2022523234 0 -4.18621930542 4.2022523234 -90 -0.986895618081 0.542217271277 1.12603856173 151.215292948 -118.784707052 162.241088011 -9.02425066923e-05 -0.000334739254329 0.000346690253525 -105.090919826 1167.92103326
0.87982199038 0.02536812831 3.65467469042 -0.953272993597 -3.52816005587 0 -4.05114961047 0 -4.03807111972 4.05114961047 -90 -0.953272993597 0.522989554601 1.08731211202 151.249941379 -118.750058621 147.176512965 -6.38761969427e-05 -0.000236429324724 0.000244906132075 -105.119967524 985.029758862
0.88027069092 0.02464686066 3.54180944925 -0.924367965671 -3.41905754077 0 -3.92582662764 0 -3.91514316662 3.92582662764 -90 -0.924367965671 0.50676908687 1.05416846155 151.267099092 -118.732900908 129.644973639 -4.42391850028e-05 -0.000163631069035 0.000169505871486 -105.128797682 814.887753476
0.88064460804 0.024045804283 3.44812824156 -0.899764289464 -3.32866480272 0 -3.82180659958 0 -3.81307024151 3.82180659958 -90 -0.899764289464 0.493141796867 1.0260432212 151.273837851 -118.726162149 112.127243094 -3.03073207035e-05 -0.000112115614599 0.000116139779567 -105.126094938 667.873433473
0.88095620564 0.023544923967 3.37032084679 -0.878969738798 -3.25368588421 0 -3.73541324445 0 -3.72826421689 3.73541324445 -90 -0.878969738798 0.48172736024 1.00232186753 151.274685719 -118.725314281 95.6635985564 -2.06280749897e-05 -7.63532354665e-05 7.90906801446e-05 -105.117428603 544.284734768
0.8812158703 0.023127523704 3.31893885883 -0.864599679866 -3.20434385339 0 -3.67831403837 0 -3.65776935446 3.67831403837 -90 -0.864599679866 0.473970184981 0.985992095876 151.268585342 -118.731414658 82.6140813583 -1.47741221056e-05 -5.47438339186e-05 5.67024066447e-05 -105.099997232 455.475564018
0.88143225752 0.02277969015 3.26554766897 -0.848862896166 -3.15328927638 0 -3.61891748366 0 -3.59914638145 3.61891748366 -90 -0.848862896166 0.465628207278 0.968182753888 151.2538208 -118.7461792 65.6963725201 -9.21558528593e-06 -3.42307248284e-05 3.54495351933e-05 -105.066759391 350.846757879
0.88161258021 0.022489828855 3.22070125757 -0.836614524298 -3.11014350845 0 -3.56912670236 0 -3.5503791154 3.56912670236 -90 -0.836614524298 0.458983193907 0.954248099616 151.249947737 -118.750052263 52.0611328897 -5.93577062831e-06 -2.20646978409e-05 2.28491633905e-05 -105.055884726 270.454899808
0.88176284911 0.022248277776 3.18339016238 -0.826389533454 -3.07425652782 0 -3.52770207424 0 -3.50979888513 3.52770207424 -90 -0.826389533454 0.453445546425 0.942620032405 151.246114344 -118.753885656 38.589302494 -3.59899038402e-06 -1.33875002408e-05 1.38628242282e-05 -105.045958858 195.895033526
0.8818880732 0.022046985209 3.15234001183 -0.817863910112 -3.04439585565 0 -3.49322867726 0 -3.47602309835 3.49322867726 -90 -0.817863910112 0.44883282161 0.932926726987 151.242598715 -118.757401285 24.957027434 -1.92037485715e-06 -7.14764886173e-06 7.40112991773e-06 -105.037210419 124.304466733
0.88199242661 0.021879241404 3.1264944258 -0.810761284489 -3.01954193535 0 -3.46453364469 0 -3.44790512601 3.46453364469 -90 -0.810761284489 0.444991709339 0.924852140788 151.239520676 -118.760479324 11.9627841386 -7.70734127514e-07 -2.87008529699e-06 2.9717706381e-06 -105.029680821 58.6864387052
0.88207938778 0.021739454899 3.10497699481 -0.804847463663 -2.99885022538 0 -3.44064393694 0 -3.42449328218 3.44064393694 -90 -0.804847463663 0.441793711564 0.918129143258 151.236905032 -118.763094968 3.40640067628 -1.82388016686e-07 -6.79484028813e-07 7.03536732921e-07 -105.023304432 16.4846055979
0.88215185542 0.021622966145 3.09437846884 -0.801934964281 -2.98865829788 0 -3.42887693146 0 -3.40499716032 3.42887693146 -90 -0.801934964281 0.440218633582 0.914818086992 151.235611002 -118.764388998 1.0555618006 -4.77130406672e-08 -1.77817380784e-07 1.84107455467e-07 -105.020145618 5.05359612261
0.87516191988 0.034042396397 4.92128821339 -1.20277512892 -4.77204460043 0 -5.45638070928 0 -5.53384017661 5.45638070928 -90 -1.20277512892 0.684336108849 1.38382944058 150.361669014 -119.638330986 144.239195827 -0.000134956628016 -0.000535444267618 0.000552190053488 -104.146525932 1746.67014406
0.87581329508 0.032959156269 4.79615267911 -1.18409247504 -4.64767873488 0 -5.31774532533 0 -5.34201793391 5.31774532533 -90 -1.18409247504 0.670066590452 1.36054024674 150.496101018 -119.503898982 149.667847162 -0.000134967275854 -0.00052970747157 0.000546632699198 -104.295311014 1720.29700745
0.87646467028 0.031875916142 4.64726695979 -1.15997836396 -4.50016477072 0 -5.15263938411 0 -5.15123659101 5.15263938411 -90 -1.15997836396 0.65247461339 1.33089318707 150.64384529 -119.35615471 156.114217812 -0.000134280126891 -0.00052091201253 0.000537941676118 -104.455833463 1684.86609851
0.87711604548 0.030792676018 4.47637072122 -1.12953004468 -4.3315139247 0 -4.96296990156 0 -4.9614960176 4.96296990156 -90 -1.12953004468 0.631455976865 1.29405469987 150.793989606 -119.206010394 163.162597219 -0.000132221353162 -0.000507024982823 0.000523982270763 -104.617131787 1634.00128646
0.87776742067 0.029709435896 4.30643997787 -1.09695036804 -4.16438395142 0 -4.77434368239 0 -4.77279601461 4.77434368239 -90 -1.09695036804 0.609959730977 1.25513064934 150.924726136 -119.075273864 168.923112172 -0.000128492813597 -0.000487802055147 0.00050444194906 -104.758618582 1566.06994133
0.87841879586 0.028626195776 4.13746676514 -1.06217703392 -3.99879860633 0 -4.58676078821 0 -4.5851363158 4.58676078821 -90 -1.06217703392 0.587962181878 1.21405142091 151.034413386 -118.965586614 171.799453114 -0.000122182837578 -0.00046000499941 0.00047595537759 -104.876836459 1470.91115576
0.87907017105 0.027542955659 3.97207947955 -1.02579315972 -3.83733649712 0 -4.40314786544 0 -4.39851659022 4.40314786544 -90 -1.02579315972 0.565811368321 1.17149256663 151.120285211 -118.879714789 169.445881344 -0.000110688092143 -0.000414119094839 0.00042865676507 -104.967225864 1338.19953657
0.87970062977 0.026494499771 3.82077699479 -0.990502966246 -3.69015366031 0 -4.2351690175 0 -4.2188795085 4.2351690175 -90 -0.990502966246 0.545015357192 1.13054774137 151.179053616 -118.820946384 160.547304965 -8.96293610603e-05 -0.000333984647237 0.000345802285925 -105.025582075 1174.1099575
0.88022601204 0.025620786528 3.68394800818 -0.957003957278 -3.55747269808 0 -4.08325966072 0 -4.06992558533 4.08325966072 -90 -0.957003957278 0.525786962634 1.09192887374 151.215423744 -118.784576256 145.607995412 -6.34425843651e-05 -0.000235855263156 0.000244238993248 -105.057084138 990.200904419
0.8806638306 0.024892692157 3.57044798719 -0.928187361467 -3.44768958914 0 -3.95725133882 0 -3.94631353277 3.95725133882 -90 -0.928187361467 0.509561749684 1.05886026409 151.233950747 -118.766049253 128.273853777 -4.39515570651e-05 -0.000163255897106 0.000169068729532 -105.068057606 819.355938032
0.8810286794 0.024285946846 3.47623013541 -0.903647125015 -3.35672379658 0 -3.85265121167 0 -3.84366184512 3.85265121167 -90 -0.903647125015 0.495927415087 1.03078718045 151.241791777 -118.758208223 110.95045074 -3.01184380875e-05 -0.000111874418212 0.000115857711491 -105.067200889 671.678005413
0.88133272007 0.023780325753 3.39797027109 -0.882898235948 -3.28126343619 0 -3.76576828327 0 -3.75836755215 3.76576828327 -90 -0.882898235948 0.484504847078 1.00710193949 151.243534433 -118.756465567 94.6438531615 -2.04995738825e-05 -7.61809056719e-05 7.88908391507e-05 -105.060107424 547.355319809
0.88158608729 0.023358974841 3.3329316432 -0.865442737903 -3.21860831545 0 -3.69356380555 0 -3.68746169109 3.69356380555 -90 -0.865442737903 0.474955490108 0.987205104862 151.242017708 -118.757982292 79.5024947868 -1.38308965205e-05 -5.14334728986e-05 5.32606470831e-05 -105.050200599 442.296090845
0.88179722665 0.023007849081 3.27885689347 -0.850809054694 -3.16654763904 0 -3.63353141289 0 -3.62849338692 3.63353141289 -90 -0.850809054694 0.466983773853 0.970541064029 151.23894941 -118.76105059 65.3037956763 -9.18085529562e-06 -3.41664881218e-05 3.53784865307e-05 -105.039486455 351.588703404
0.88197317611 0.02271524428 3.23388113236 -0.838570904515 -3.12326490191 0 -3.58360058426 0 -3.57943638977 3.58360058426 -90 -0.838570904515 0.460335682342 0.956613904832 151.235324671 -118.764675329 51.695028248 -5.9075530899e-06 -2.20007744364e-05 2.2780109237e-05 -105.02907896 270.746259989
0.88211980066 0.022471406946 3.19646163434 -0.828353682716 -3.08726333868 0 -3.54205854262 0 -3.53861336574 3.54205854262 -90 -0.828353682716 0.454795203947 0.944991300802 151.231697437 -118.768302563 38.2360367509 -3.57461289208e-06 -1.33212255705e-05 1.37924961338e-05 -105.01954498 195.69022791
0.88224198779 0.022268209167 3.16532072511 -0.819834044656 -3.05730687191 0 -3.50748681209 0 -3.50463431666 3.50748681209 -90 -0.819834044656 0.450179940171 0.935302033595 151.228353586 -118.771646414 24.610695736 -1.89869273817e-06 -7.07970366036e-06 7.32988740713e-06 -105.011124943 123.582563152
0.8823438104 0.022098877684 3.13939921516 -0.812736089907 -3.03237290701 0 -3.47870949737 0 -3.47634631235 3.47870949737 -90 -0.812736089907 0.446336590363 0.927230476363 151.225419074 -118.774580926 11.6806010155 -7.5471764748e-07 -2.81541628261e-06 2.91481891693e-06 -105.003870307 57.7681877548
0.88242866257 0.021957768116 3.11781831311 -0.806825941645 -3.01161434658 0 -3.45475098764 0 -3.45279232783 3.45475098764 -90 -0.806825941645 0.443136641061 0.920509768313 151.222923357 -118.777076643 3.27787051711 -1.75857556363e-07 -6.56286857855e-07 6.79439778681e-07 -104.997723678 15.9888440636
0.88249937271 0.021840176808 3.10718845008 -0.80391518922 -3.00138943241 0 -3.44295000872 0 -3.43317744504 3.44295000872 -90 -0.80391518922 0.44156057631 0.917199773056 151.221688462 -118.778311538 1.02572780761 -4.64708330962e-08 -1.73488230693e-07 1.79604317566e-07 -104.994678134 4.95040257568
0.87569598543 0.034367231075 4.93782504467 -1.20351860273 -4.78890881716 0 -5.47441474851 0 -5.57128796877 5.47441474851 -90 -1.20351860273 0.685505931355 1.38505445004 150.334841193 -119.665158807 143.4970862 -0.000134357288083 -0.00053461185671 0.000551236665451 -104.107197429 1749.34034382
0.87633082312 0.033274399264 4.85263996039 -1.1901927455 -4.70441091506 0 -5.37992025061 0 -5.37877413239 5.37992025061 -90 -1.1901927455 0.675509335553 1.36853083396 150.423489623 -119.576510377 147.162989672 -0.000134113556659 -0.000530061213178 0.000546765280941 -104.199441642 1731.6535831
0.87696566082 0.032181567455 4.68005156633 -1.16211932258 -4.53346470907 0 -5.18844950459 0 -5.18727117114 5.18844950459 -90 -1.16211932258 0.65498479552 1.33399036829 150.594964989 -119.405035011 154.586167336 -0.000133221679108 -0.000519670415171 0.000536475658943 -104.379462393 1691.98758934
0.87760049851 0.031088735648 4.50841202558 -1.13196799746 -4.36398696745 0 -4.99799282128 0 -4.99677941695 4.99799282128 -90 -1.13196799746 0.634005853831 1.29742740834 150.748244541 -119.251755459 161.615173871 -0.000131260758949 -0.000506022640403 0.000522770415315 -104.542985753 1641.75271884
0.8782353362 0.029995903843 4.3377137335 -1.09965624806 -4.19600810587 0 -4.80855075004 0 -4.80729913053 4.80855075004 -90 -1.09965624806 0.612542644165 1.25875112865 150.881838763 -119.118161237 167.332641585 -0.000127607997915 -0.000486921370811 0.000503365335173 -104.686789374 1573.94155818
0.87887017389 0.028903072041 4.1679491742 -1.06512125004 -4.02955275107 0 -4.62012381409 0 -4.61883050412 4.62012381409 -90 -1.06512125004 0.590571063013 1.21789112445 150.994123379 -119.005876621 170.147668815 -0.000121354458458 -0.000459128794144 0.000474896236303 -104.807432681 1478.32158054
0.87950501157 0.027810240241 4.00176040328 -1.02894352433 -3.86721458733 0 -4.43565334733 0 -4.43137366254 4.43565334733 -90 -1.02894352433 0.568438759998 1.17552037815 151.082325642 -118.917674358 167.751950646 -0.000109928176847 -0.000413211929338 0.000427584435069 -104.900342153 1344.70311616
0.88011946267 0.026752502667 3.84970159616 -0.993818997503 -3.71920949914 0 -4.26686309339 0 -4.25090026735 4.26686309339 -90 -0.993818997503 0.547653594253 1.13472507935 151.143070566 -118.856929434 158.874377866 -8.90007168098e-05 -0.000333142891343 0.000344826576704 -104.961155265 1179.53696887
0.88063150526 0.025871054686 3.71216946407 -0.96045121406 -3.5857678679 0 -4.11419768271 0 -4.10122986145 4.11419768271 -90 -0.96045121406 0.528429814808 1.09622295675 151.181125108 -118.818874892 144.055554166 -6.29966626732e-05 -0.000235215996583 0.00024350598235 -104.995023424 994.704211264
0.88105820741 0.0251365147 3.59807189337 -0.931730086865 -3.47534125953 0 -3.98754568977 0 -3.9770073426 3.98754568977 -90 -0.931730086865 0.512204430236 1.06323771526 151.200993855 -118.799006145 126.91459554 -4.36546711356e-05 -0.000162834003142 0.000168584253909 -105.008069358 823.259448147
0.88141379254 0.024524398044 3.50334811416 -0.907259610687 -3.38383286624 0 -3.88239984399 0 -3.87383773425 3.88239984399 -90 -0.907259610687 0.498566977752 1.03522418665 151.209916389 -118.790083611 109.782406538 -2.9922847355e-05 -0.000111600490181 0.000115542414872 -105.009002093 675.012505171
0.88171011348 0.02401430083 3.42466116059 -0.88656194017 -3.3079161265 0 -3.79505575258 0 -3.78810551325 3.79505575258 -90 -0.88656194017 0.487139626078 1.01158151601 151.212537901 -118.787462099 93.6311873059 -2.0366409709e-05 -7.5986130183e-05 7.86681902328e-05 -105.003436294 550.03767587
0.8819570476 0.023589219817 3.35926284868 -0.869144321412 -3.24487786375 0 -3.72246257673 0 -3.71683035283 3.72246257673 -90 -0.869144321412 0.47758471298 0.991715220288 151.211740222 -118.788259778 78.6047659046 -1.37349728666e-05 -5.12746850065e-05 5.30824215113e-05 -104.994823841 444.239196188
0.88216282603 0.023234985639 3.30488575795 -0.854538925423 -3.1924959818 0 -3.6621032434 0 -3.65755129234 3.6621032434 -90 -0.854538925423 0.469607261608 0.975073237965 151.209263739 -118.790736261 64.4842507156 -9.10694948572e-06 -3.40202261108e-05 3.52180720393e-05 -104.985201231 352.712139932
0.88233430806 0.022939790491 3.25965624843 -0.842322145272 -3.14894425355 0 -3.61189787897 0 -3.60823325501 3.61189787897 -90 -0.842322145272 0.462953625421 0.961162169554 151.206128642 -118.793871358 50.9204830068 -5.84654985189e-06 -2.18549420948e-05 2.26234558003e-05 -104.975711566 270.960897416
0.88247720975 0.022693794533 3.22202405245 -0.832121275569 -3.1127176161 0 -3.57012561929 0 -3.56719126199 3.57012561929 -90 -0.832121275569 0.457408003187 0.949551449897 151.202908336 -118.797091664 37.4780823956 -3.52118740876e-06 -1.31704570467e-05 1.36330385212e-05 -104.966948025 194.895585061
0.88259629449 0.022488797902 3.19070503722 -0.823614317212 -3.08257294774 0 -3.53536104652 0 -3.5330287462 3.53536104652 -90 -0.823614317212 0.452788098783 0.939871087279 151.199903957 -118.800096043 23.8607374577 -1.85095929454e-06 -6.92682097496e-06 7.16986121104e-06 -104.959174032 121.752299128
0.88269553178 0.022317967376 3.16463451337 -0.81652631877 -3.05748170035 0 -3.50642234317 0 -3.50458716567 3.50642234317 -90 -0.81652631877 0.448940642819 0.931806301052 151.19725343 -118.80274657 11.0735548232 -7.19837266829e-07 -2.69495965605e-06 2.78943987346e-06 -104.952460672 55.6536178702
0.88277822952 0.022175608604 3.14292902414 -0.810624043275 -3.03659176632 0 -3.48232886774 0 -3.48090472476 3.48232886774 -90 -0.810624043275 0.445737101421 0.92509078152 151.194995213 -118.805004787 3.00639033154 -1.6197061768e-07 -6.06617091525e-07 6.27868501071e-07 -104.946766588 14.9003402904
0.8828471443 0.022056976294 3.13223765882 -0.807717051359 -3.02630203549 0 -3.47046125464 0 -3.46118246541 3.47046125464 -90 -0.807717051359 0.444159219149 0.92178321578 151.193877459 -118.806122541 0.961302221769 -4.37613399383e-08 -1.63951783294e-07 1.69691625332e-07 -104.943944197 4.71437302052
0.87623621398 0.034681719179 4.97011995307 -1.20484807638 -4.8218691756 0 -5.50961517249 0 -5.60667079524 5.50961517249 -90 -1.20484807638 0.687745996885 1.38731894377 150.281623953 -119.718376047 142.04134221 -0.00013316744821 -0.000532936072336 0.000549321911294 -104.029440094 1754.32091347
0.87685469396 0.033578995915 4.88460690534 -1.191686323 -4.73700250352 0 -5.41477656025 0 -5.41343563312 5.41477656025 -90 -1.191686323 0.677774056731 1.37094827077 150.371990604 -119.628009396 145.70193451 -0.000132974641741 -0.000528536593486 0.000545008373878 -104.122664781 1737.114583
0.87747317394 0.032476272654 4.71133999431 -1.16393355039 -4.56529545176 0 -5.22259244281 0 -5.221181559 5.22259244281 -90 -1.16393355039 0.657296991047 1.3367066595 150.546813685 -119.453186315 153.107821642 -0.000132180233713 -0.000518418216536 0.000535004527076 -104.304717226 1698.28252491
0.87809165392 0.031373549394 4.53899654306 -1.1340760227 -4.39503295561 0 -5.03139267044 0 -5.02990935735 5.03139267044 -90 -1.1340760227 0.636359714823 1.30041729318 150.703154529 -119.296845471 160.112962427 -0.000130309779778 -0.000504989616368 0.000521532132724 -104.470353847 1648.63018902
0.87871013389 0.030270826135 4.36756950937 -1.10202978164 -4.2262465852 0 -4.84117824718 0 -4.83961974099 4.84117824718 -90 -1.10202978164 0.614931661981 1.26198760762 150.839531818 -119.160468182 165.785522847 -0.000126728543118 -0.000486001861211 0.00050225329937 -104.616355746 1580.93421949
0.87932861387 0.029168102879 4.19705182726 -1.06773151352 -4.05896181656 0 -4.65195014779 0 -4.65031335157 4.65195014779 -90 -1.06773151352 0.592988331223 1.22134644455 150.954338139 -119.045661861 168.528769075 -0.000120521611342 -0.000458184016351 0.000473770342216 -104.739298419 1484.78644858
0.87994709384 0.028065379625 4.03009861966 -1.03175934403 -3.89578672076 0 -4.46666373762 0 -4.46199076207 4.46666373762 -90 -1.03175934403 0.570877016853 1.17916441088 151.044796099 -118.955203901 166.076739477 -0.000109153758677 -0.000412206765793 0.000426414246704 -104.834598158 1350.20742802
0.88054571139 0.026998070258 3.87731713776 -0.996800843888 -3.74699468714 0 -4.29709984511 0 -4.28065353139 4.29709984511 -90 -0.996800843888 0.550105157973 1.13852007907 151.107450006 -118.892549994 157.20427861 -8.83510720123e-05 -0.000332189515609 0.000343738041056 -104.897743586 1183.94867088
0.88104455935 0.026108645783 3.73911207803 -0.963565464955 -3.61282386732 0 -4.14371227465 0 -4.13024384321 4.14371227465 -90 -0.963565464955 0.530888407328 1.1001368458 151.147129673 -118.852870327 142.489841324 -6.25281482432e-05 -0.000234470764122 0.000242665051382 -104.933861658 998.222918702
0.88146026598 0.025367458719 3.6244418043 -0.934941595557 -3.50177941977 0 -4.0164445073 0 -4.00539194926 4.0164445073 -90 -0.934941595557 0.514665087527 1.06723757771 151.168292724 -118.831707276 125.528269423 -4.33364610526e-05 -0.000162318964335 0.000168004471943 -104.948884721 826.240995892
0.88180668818 0.024749802831 3.52923258183 -0.910542920582 -3.40974941997 0 -3.91077594445 0 -3.90168872427 3.91077594445 -90 -0.910542920582 0.501026524476 1.0392863286 151.178259217 -118.821740783 108.576002814 -2.97083698116e-05 -0.000111247567789 0.000115146045915 -104.951529092 677.493907049
0.88209537334 0.02423508959 3.45013545719 -0.889898556878 -3.33339352345 0 -3.8229896864 0 -3.81550553706 3.8229896864 -90 -0.889898556878 0.489596162952 1.01568888864 151.181730054 -118.818269946 92.5704723223 -2.02169280527e-05 -7.57249262063e-05 7.83772294984e-05 -104.947427938 551.926810794
0.88233594431 0.023806161889 3.38439145532 -0.872520826022 -3.26998628171 0 -3.75002352248 0 -3.74385024098 3.75002352248 -90 -0.872520826022 0.480037240764 0.995855618362 151.181628306 -118.818371694 77.6493924285 -1.36249269811e-05 -5.10593911906e-05 5.28460094137e-05 -104.940059012 445.431667581
0.88253642012 0.023448722137 3.32972361429 -0.857945575517 -3.21729486708 0 -3.68935025617 0 -3.68425141305 3.68935025617 -90 -0.857945575517 0.472055389082 0.979237951042 151.179725638 -118.820274362 63.5957708362 -9.02054721825e-06 -3.38245335316e-05 3.50067081377e-05 -104.931486952 353.103882015
0.88270348329 0.023150855677 3.28424996743 -0.845751842682 -3.17348378638 0 -3.63888113738 0 -3.6346648398 3.63888113738 -90 -0.845751842682 0.465397351006 0.965344981837 151.177066261 -118.822933739 50.0612546852 -5.77400379646e-06 -2.16638247122e-05 2.24200920938e-05 -104.922882109 270.428433604
0.88284270261 0.022902633627 3.24641304931 -0.835568817844 -3.13704004363 0 -3.59688760287 0 -3.59339764066 3.59688760287 -90 -0.835568817844 0.45984755924 0.953747914444 151.174242238 -118.825757762 36.6175476241 -3.45694992231e-06 -1.29774794352e-05 1.34300228199e-05 -104.914862509 193.320531149
0.8829587187 0.022695781918 3.21492255128 -0.827075858416 -3.10671376796 0 -3.56193761219 0 -3.55904646651 3.56193761219 -90 -0.827075858416 0.455223844227 0.944078004524 151.171569301 -118.828430699 22.999502002 -1.79388529258e-06 -6.73748693312e-06 6.97221374309e-06 -104.907713427 119.154278853
0.88305539878 0.022523405494 3.18870851541 -0.819998974587 -3.08147069802 0 -3.5328436873 0 -3.53044698787 3.5328436873 -90 -0.819998974587 0.451372989272 0.936021338644 151.169196741 -118.830803259 10.3917562966 -6.79568930548e-07 -2.55329771189e-06 2.64218555682e-06 -104.901524575 53.0291089576
0.88313596551 0.022379758474 3.16688301016 -0.814105573833 -3.06045391526 0 -3.50862037171 0 -3.50663249232 3.50862037171 -90 -0.814105573833 0.448166456451 0.929312169819 151.16717135 -118.83282865 2.71478441852 -1.46829971302e-07 -5.51861481375e-07 5.71060590741e-07 -104.896269625 13.659758229
0.88320310445 0.022260052624 3.1561323951 -0.81120284387 -3.05010159516 0 -3.49668865099 0 -3.48679985974 3.49668865099 -90 -0.81120284387 0.446587055826 0.926007614592 151.16616846 -118.83383154 0.889620768681 -4.06838519283e-08 -1.52959020908e-07 1.58277107183e-07 -104.893663882 4.42952724114