TITLE = "Electromagnetic Field"
VARIABLES = X Y E ER EI EvR EvI EvR' EvI' Ev EvPhase EpR EpI Ep EpPhase EpToEvPhaseShift elConductivity Jr Ji J Jphase QJ
ZONE N=292, E=256, F=FEPOINT, ET=QUADRILATERAL
0.88339669773 0.043198621035 6.07759586271 -1.26370140851 -5.94474985825 0 -6.72348647123 0 -6.72253555907 6.72348647123 -90 -1.26370140851 0.778736612979 1.48438168798 148.358123809 -121.641876191 96.0819144671 -0.000119111168008 -0.000560032913223 0.000572560845624 -102.002812202 1773.2101705
0.8833996203 0.044454920341 6.25756930471 -1.2729949113 -6.12669959026 0 -6.92152393312 0 -6.91485388862 6.92152393312 -90 -1.2729949113 0.794824342862 1.50076050595 148.021279523 -121.978720477 89.8175557703 -0.000112067138734 -0.000539247728649 0.00055077107962 -101.739683373 1757.1512684
0.88340264006 0.045753000035 6.43777961072 -1.27992317317 -6.3092444105 0 -7.11958368088 0 -7.1132862862 7.11958368088 -90 -1.27992317317 0.810339270373 1.51488527807 147.662296919 -122.337703081 83.6426998995 -0.000108402406036 -0.000534220912846 0.000545109872258 -101.469621334 1731.80812305
0.88340575945 0.047093902503 6.62378059995 -1.2852656887 -6.49786839791 0 -7.32386094627 0 -7.31795589774 7.32386094627 -90 -1.2852656887 0.825992548365 1.52780907513 147.273464818 -122.726535182 77.3812442436 -0.00010401087098 -0.000525675365186 0.00053586808575 -101.19059003 1695.90181574
0.88340898094 0.048478693238 6.8156970946 -1.28898014792 -6.69267944337 0 -7.53447831357 0 -7.5289859112 7.53447831357 -90 -1.28898014792 0.841798870196 1.53952247502 146.85329516 -123.14670484 70.9935080454 -9.88158596915e-05 -0.000512867736582 0.000522302255827 -100.903508181 1647.14921035
0.88341230705 0.04990846132 7.01365419394 -1.29104605313 -6.89378085936 0 -7.75155817568 0 -7.74649933108 7.75155817568 -90 -1.29104605313 0.85777731632 1.55003938532 146.400493957 -123.599506043 64.4307374221 -9.27252120053e-05 -0.000494869366892 0.000503483228054 -100.609436247 1582.69594642
0.88341574039 0.051384319903 7.11254505073 -1.29166251293 -6.99427659242 0 -7.8599610248 0 -7.97061873014 7.8599610248 -90 -1.29166251293 0.865684432381 1.55492816033 146.169632719 -123.830367281 61.1524437968 -8.94991445333e-05 -0.000484632607499 0.00049282741515 -100.463168486 1546.79899755
0.88416504674 0.043415549428 6.0810751539 -1.26155366782 -5.94876202866 0 -6.7268964724 0 -6.73038610684 6.7268964724 -90 -1.26155366782 0.778134443739 1.48223761483 148.33434844 -121.66565156 95.7326473182 -0.000118616942118 -0.000559037313971 0.000571484340987 -101.975167621 1768.7765454
0.88416799902 0.044671285282 6.26061506798 -1.2707224974 -6.13028122628 0 -6.92444425443 0 -6.92185756628 6.92444425443 -90 -1.2707224974 0.794163028151 1.4984830147 147.996670744 -122.003329256 89.4707306957 -0.000111681113329 -0.000538662927345 0.000550120078279 -101.712656481 1752.06070348
0.88417104928 0.045968700127 6.44043517416 -1.27755236518 -6.31243372842 0 -7.1220662067 0 -7.11940303656 7.1220662067 -90 -1.27755236518 0.809632478278 1.51250442208 147.636834475 -122.363165525 83.2966078193 -0.000107985391679 -0.00053341922987 0.000544241375536 -101.443310661 1726.05528347
0.88417419998 0.047308831805 6.62602737114 -1.28279939431 -6.5006452836 0 -7.32588537319 0 -7.32314453613 7.32588537319 -90 -1.28279939431 0.825240089586 1.52532783595 147.247110446 -122.752889554 77.034787324 -0.000103562358997 -0.000524634593754 0.000534760146242 -101.16500807 1689.44354611
0.88417745359 0.048692741123 6.8175160355 -1.28642274205 -6.69502316612 0 -7.53602378216 0 -7.53320411979 7.53602378216 -90 -1.28642274205 0.841000616037 1.53694513906 146.826030975 -123.173969025 70.6453600147 -9.83352660631e-05 -0.000511561830258 0.000520929093211 -100.878673889 1639.93485259
0.88418081268 0.050121512325 7.01502573627 -1.28840361573 -6.89566998068 0 -7.75260326964 0 -7.74970365241 7.75260326964 -90 -1.28840361573 0.856933288954 1.54737176864 146.372326006 -123.627673994 64.0790573099 -9.22114586247e-05 -0.000493265574313 0.000501812324896 -100.585376244 1574.65931443
0.88418427985 0.051596253583 7.11369471787 -1.28897992665 -6.99593987111 0 -7.86075802394 0 -7.97276456868 7.86075802394 -90 -1.28897992665 0.864818152825 1.55221786081 146.141017219 -123.858982781 60.7983960548 -8.89686159196e-05 -0.000482872923987 0.000491000729475 -100.439492377 1538.33800933
0.88493712706 0.043618798356 6.08701154444 -1.25719282178 -5.95575263171 0 -6.73259423037 0 -6.73590701979 6.73259423037 -90 -1.25719282178 0.776841598655 1.47784783188 148.288246939 -121.711753061 95.0640735223 -0.000117599065596 -0.000556828191189 0.000569112292492 -101.921344262 1759.848387
0.88494006888 0.044874116715 6.26564887533 -1.26612447944 -6.13637270161 0 -6.92912472069 0 -6.92655911138 6.92912472069 -90 -1.26612447944 0.792752019085 1.49383658205 147.94909432 -122.05090568 88.808412459 -0.000110929510023 -0.000537512961514 0.000548841678938 -101.660154982 1741.88391476
0.88494310814 0.046171017577 6.444703345 -1.27276845853 -6.3177542746 0 -7.12588779456 0 -7.12324628242 7.12588779456 -90 -1.27276845853 0.808133519967 1.50766182248 147.587627419 -122.412372581 82.6351053146 -0.000107174405067 -0.000531849134054 0.000542541772587 -101.39221785 1714.61153918
0.88494624728 0.047510534365 6.62949316881 -1.27783509057 -6.50515527674 0 -7.32880803676 0 -7.32608945862 7.32880803676 -90 -1.27783509057 0.823652760018 1.52029467452 147.196194177 -122.803805823 76.3719240013 -0.000102690938268 -0.00052260107157 0.000532596531771 -101.115345046 1676.64989695
0.88494948876 0.048893723323 6.82014183611 -1.28128637536 -6.6986817652 0 -7.53800637633 0 -7.53520959492 7.53800637633 -90 -1.28128637536 0.839324611137 1.53172954685 146.773366625 -123.226633375 69.9785044156 -9.74021996967e-05 -0.000509014027756 0.000518251113949 -100.830474525 1625.69377161
0.88495283512 0.050321663995 7.01677287303 -1.28310681601 -6.89843496052 0 -7.75360354598 0 -7.75072745444 7.75360354598 -90 -1.28310681601 0.855168585454 1.54198482523 146.317921588 -123.682078412 63.4045703227 -9.12145685551e-05 -0.000490139532439 0.00049855646015 -100.538689461 1558.84326874
0.88495628894 0.051795459697 7.11500599783 -1.28360741798 -6.99826083173 0 -7.86127114492 0 -7.97276336745 7.86127114492 -90 -1.28360741798 0.863010313188 1.54674992297 146.085750005 -123.914249995 60.1189150491 -8.7939407665e-05 -0.000479444153654 0.000487442378056 -100.39355483 1521.70886332
0.8857126957 0.043808303839 6.09085787452 -1.25268582614 -5.96063277326 0 -6.73599454584 0 -6.73912253724 6.73599454584 -90 -1.25268582614 0.775361772573 1.47323632164 148.245062886 -121.754937114 94.4557656193 -0.000116637780026 -0.000554730319513 0.000566861268667 -101.870363042 1750.79201054
0.88571558935 0.045063351973 6.26861023342 -1.26140381255 -6.14036829278 0 -6.93152855051 0 -6.92898285875 6.93152855051 -90 -1.26140381255 0.791160257733 1.48899123256 147.904606335 -122.095393665 88.2054498817 -0.000110215855379 -0.000536401279752 0.000547608880509 -101.610495297 1731.68855665
0.88571857867 0.046359891044 6.44692424369 -1.26788320072 -6.32100188791 0 -7.12746147673 0 -7.12484044294 7.12746147673 -90 -1.26788320072 0.806459588816 1.50264090729 147.54165946 -122.45834054 82.0317917999 -0.000106406377907 -0.000530343171919 0.00054091393471 -101.343933541 1703.26012022
0.88572166602 0.047698950179 6.63093780835 -1.27279010236 -6.50761653419 0 -7.32951267495 0 -7.32681515691 7.32951267495 -90 -1.27279010236 0.821896140762 1.51510309541 147.148663525 -122.851336475 75.7661087329 -0.000101867424914 -0.000520659705106 0.000530532960079 -101.068448642 1664.06613841
0.88572485382 0.049081581192 6.82077354545 -1.27608920399 -6.70031710662 0 -7.53780200872 0 -7.53502689047 7.53780200872 -90 -1.27608920399 0.837484902097 1.52637459084 146.724228537 -123.275771463 69.3676020219 -9.65219321431e-05 -0.000506588935701 0.000515703929144 -100.78499129 1611.7880577
0.88572814457 0.050508859047 7.01655397976 -1.27776809685 -6.89920350772 0 -7.7524491414 0 -7.74959533683 7.7524491414 -90 -1.27776809685 0.853245633678 1.53647652901 146.2671763 -123.7328237 62.7849896188 -9.02752964007e-05 -0.000487169563761 0.000495464889514 -100.494659298 1543.49707453
0.88573154079 0.051981882342 7.11436503764 -1.27820200748 -6.99859862505 0 -7.85964547669 0 -7.9706397574 7.85964547669 -90 -1.27820200748 0.861046851643 1.54116919869 146.034205605 -123.965794395 59.4938429941 -8.69701730208e-05 -0.000476188576559 0.000484065494465 -100.350242775 1505.61806464
0.88649150694 0.043984005836 6.09261347507 -1.24804220698 -5.96340057425 0 -6.73709772871 0 -6.74005758632 6.73709772871 -90 -1.24804220698 0.773697154465 1.46841215771 148.204927201 -121.795072799 93.9086426245 -0.000115767275954 -0.00055290490096 0.000564895977252 -101.822257792 1741.64908108
0.88649431721 0.045238932288 6.26952130591 -1.25656804712 -6.14228988763 0 -6.93168073204 0 -6.92915381389 6.93168073204 -90 -1.25656804712 0.789390844418 1.48395481284 147.863272841 -122.136727159 87.6617558168 -0.000109541574765 -0.000535337584556 0.000546431400521 -101.563651571 1721.51024519
0.88649722021 0.046535263049 6.44711997883 -1.26290386906 -6.32219846193 0 -7.12681230682 0 -7.12421059247 7.12681230682 -90 -1.26290386906 0.804613844888 1.49744929729 147.498994356 -122.501005644 81.4866451473 -0.000105682731171 -0.000528911739993 0.000539368264345 -101.298434061 1692.03742571
0.88650021822 0.047874023073 6.6303833834 -1.26767133247 -6.50805101082 0 -7.3280243952 0 -7.32534676181 7.3280243952 -90 -1.26767133247 0.81997338438 1.50976037263 147.104580216 -122.895419784 75.217378221 -0.000101093216543 -0.000518821599261 0.0005285805307 -101.024296369 1651.72941239
0.88650331359 0.049256259865 6.81943326586 -1.27083767579 -6.69995123943 0 -7.53543582676 0 -7.53268117849 7.53543582676 -90 -1.27083767579 0.835484587334 1.52088710656 146.678676281 -123.321323719 68.8127754295 -9.56958677204e-05 -0.000504298629496 0.000513299600514 -100.742202167 1598.25633031
0.88650650873 0.050683043944 7.01439118199 -1.27239338287 -6.89799778499 0 -7.74916522919 0 -7.74633250042 7.74916522919 -90 -1.27239338287 0.851167444205 1.5308532036 146.220147122 -123.779852878 62.2205012913 -8.93950159501e-05 -0.000484368613008 0.000492550532755 -100.453263676 1528.66041552
0.88650980607 0.052155469318 7.11179398492 -1.27276934902 -6.99697548115 0 -7.85590621097 0 -7.96641895278 7.85590621097 -90 -1.27276934902 0.858930729817 1.53548174597 145.986439592 -124.013560408 58.9233730662 -8.60622364204e-05 -0.000473119407706 0.000480883260103 -100.309533975 1490.10529991
0.88727331624 0.044145849177 6.09234252051 -1.24326923606 -5.96412085492 0 -6.73597459923 0 -6.73873775031 6.73597459923 -90 -1.24326923606 0.771853744311 1.4633845092 148.167803285 -121.832196715 93.4208089696 -0.000114928881862 -0.00055108484539 0.000562942894614 -101.776918563 1732.44294953
0.88727601042 0.045400803723 6.26840479292 -1.25162419301 -6.14215998658 0 -6.92960688638 0 -6.92709761975 6.92960688638 -90 -1.25162419301 0.787446899806 1.47873473281 147.8251523 -122.1748477 87.1772482856 -0.000108907876485 -0.000534330564807 0.000545317925565 -101.519598251 1711.38125888
0.88727879332 0.046697080895 6.44531323287 -1.25783715753 -6.32136654591 0 -7.12396595567 0 -7.1213824213 7.12396595567 -90 -1.25783715753 0.802599409757 1.49209411254 147.459689116 -122.540310884 80.9996496985 -0.000105004674136 -0.000527564218581 0.000537914131566 -101.255695437 1680.97644366
0.88728166712 0.0480357016 6.62785257064 -1.26248510895 -6.50648132106 0 -7.32436890484 0 -7.32170999891 7.32436890484 -90 -1.26248510895 0.817887583782 1.50427327882 147.06399982 -122.93600018 74.7257709865 -0.000100369500561 -0.000517096789792 0.000526749259195 -100.982865362 1639.67323064
0.88728463407 0.04941770916 6.81614368052 -1.26553769261 -6.69760686081 0 -7.53093356221 0 -7.5281982077 7.53093356221 -90 -1.26553769261 0.833326701403 1.51527345374 146.636763695 -123.363236305 68.3141299056 -9.49251828448e-05 -0.000502153948507 0.000511048938526 -100.702084872 1585.13299544
0.88728769645 0.050844169775 7.01030717658 -1.26698809276 -6.89484058257 0 -7.74377755088 0 -7.7409647023 7.74377755088 -90 -1.26698809276 0.848936968301 1.52512073651 146.17688565 -123.82311435 61.7112833716 -8.85748979861e-05 -0.000481748439832 0.000489825112924 -100.414480436 1514.36885181
0.88729085661 0.052316172995 7.10731555144 -1.26731461223 -6.99341424475 0 -7.85007909835 0 -7.96012670242 7.85007909835 -90 -1.26731461223 0.856664853597 1.52969320857 145.942502315 -124.057497685 58.4077133128 -8.52167581823e-05 -0.000470248841536 0.00047790782841 -100.271406222 1475.20661943
0.88805787589 0.044293782586 6.09005082517 -1.23837350206 -5.9627988896 0 -6.73263234395 0 -6.73518922071 6.73263234395 -90 -1.23837350206 0.769833454354 1.45815982569 148.133779563 -121.866220437 92.9927635577 -0.000114145195632 -0.000549378798813 0.000561112924002 -101.734351236 1723.20399305
0.88806042382 0.045548916193 6.26528390928 -1.24657865134 -6.14000169311 0 -6.92533322478 0 -6.92284051193 6.92533322478 -90 -1.24657865134 0.785331531673 1.4733378919 147.790294999 -122.209705001 86.7518302857 -0.000108315727252 -0.000533387783155 0.00054427599586 -101.478309318 1701.33014162
0.88806305548 0.046845295704 6.4415272304 -1.25268915354 -6.3185293158 0 -7.11894866553 0 -7.11638219847 7.11894866553 -90 -1.25268915354 0.800419349729 1.48658194538 147.423793772 -122.576206228 80.5707894076 -0.000104373197084 -0.000526308919157 0.000536559820858 -101.215693091 1670.10660217
0.88806577293 0.048183938096 6.62336859206 -1.25723717371 -6.50293070144 0 -7.31857246509 0 -7.31593115782 7.31857246509 -90 -1.25723717371 0.815641763647 1.49864807269 147.026971502 -122.973028498 74.2913539356 -9.96972929822e-05 -0.00051549442118 0.000525048258934 -100.944132203 1627.92805981
0.88806857829 0.049565882634 6.81092800978 -1.26019460246 -6.69330727197 0 -7.52432148077 0 -7.52160427455 7.52432148077 -90 -1.26019460246 0.831014208796 1.50953950782 146.598538632 -123.401461368 67.8717987506 -9.42108935853e-05 -0.000500164821354 0.000508961834312 -100.664616719 1572.4492771
0.88807147371 0.050992191328 7.00432518378 -1.26155713229 -6.88975527001 0 -7.7363123618 0 -7.73351823011 7.7363123618 -90 -1.26155713229 0.84655709179 1.51928457132 146.137437861 -123.862562139 61.2575793767 -8.78160211992e-05 -0.000479320194576 0.000487299742396 -100.378287226 1500.65562592
0.88807446139 0.052463949399 7.10095296383 -1.26184247553 -6.98793832572 0 -7.8421903925 0 -7.95178927107 7.8421903925 -90 -1.26184247553 0.854252066778 1.52380880809 145.902438683 -124.097561317 57.9471938269 -8.44348947895e-05 -0.000467588908919 0.000475151196387 -100.235837226 1460.95711399
0.88884493898 0.044427759522 6.08576677213 -1.2333612707 -5.95946303619 0 -6.72710281846 0 -6.72943875128 6.72710281846 -90 -1.2333612707 0.767639782269 1.45274512793 148.102889064 -121.897110936 92.6241129081 -0.000113411512433 -0.000547768717097 0.000559387377184 -101.694520081 1713.95557522
0.88884731305 0.045683224309 6.26018239138 -1.24143720146 -6.13583872229 0 -6.91888650379 0 -6.91640927203 6.91888650379 -90 -1.24143720146 0.783047781499 1.46777064113 147.758744244 -122.241255756 86.3854026315 -0.000107766100648 -0.000532516869316 0.000543313223959 -101.439757983 1691.38197973
0.88884976497 0.046979863244 6.43578570688 -1.2474653586 -6.31371053712 0 -7.11178720879 0 -7.10923672099 7.11178720879 -90 -1.2474653586 0.798076671676 1.48091887698 147.39135166 -122.60864834 80.2000480098 -0.000103789298217 -0.000525154179017 0.000535313648817 -101.178401922 1659.45377293
0.88885229667 0.048318689495 6.61695517673 -1.25193271189 -6.49742296499 0 -7.31066185093 0 -7.30803703804 7.31066185093 -90 -1.25193271189 0.813238885944 1.49289052799 146.993538169 -123.006461831 73.9141961547 -9.90776173351e-05 -0.000514023617063 0.000523486629431 -100.908073096 1616.52073178
0.88885491011 0.049700738394 6.80380997422 -1.25481323189 -6.68707633375 0 -7.51562634598 0 -7.51292616696 7.51562634598 -90 -1.25481323189 0.828550012228 1.50369069291 146.564043089 -123.435956911 67.4859284405 -9.35540339339e-05 -0.000498341160257 0.000507048171295 -100.629774817 1560.23288781
0.88885760728 0.051127067888 6.99646891411 -1.25610492748 -6.88276575579 0 -7.7267963998 0 -7.72401984598 7.7267963998 -90 -1.25610492748 0.844030644016 1.51334974152 146.101844256 -123.898155744 60.8596806997 -8.71195274396e-05 -0.000477095209836 0.000484985729153 -100.344661689 1487.55119477
0.88886039022 0.052598758999 7.09272993374 -1.25635715939 -6.98057166237 0 -7.83226682253 0 -7.94143337792 7.83226682253 -90 -1.25635715939 0.851695160165 1.51783337783 145.866288309 -124.133711691 57.5422181689 -8.37179008039e-05 -0.000465151994196 0.0004726257312 -100.202804799 1447.38966464
0.8896342584 0.044547737886 6.07950817484 -1.22823746129 -5.95413108949 0 -6.71940621692 0 -6.72151360556 6.71940621692 -90 -1.22823746129 0.765275127429 1.4471457262 148.075177196 -121.924822804 92.3148304952 -0.00011273379908 -0.0005462866248 0.00055779876459 -101.657403253 1704.71830589
0.88963643356 0.045803687083 6.25312447832 -1.23620502294 -6.12969537607 0 -6.91029401203 0 -6.90783117632 6.91029401203 -90 -1.23620502294 0.780598635961 1.46203880896 147.730536153 -122.269463847 86.0778569424 -0.000107259362905 -0.000531722457896 0.000542434171397 -101.403916751 1681.55829305
0.88963867991 0.04710074364 6.42811289904 -1.24217070215 -6.30693455161 0 -7.10250887566 0 -7.09997326439 7.10250887566 -90 -1.24217070215 0.795574324051 1.47511049073 147.362399385 -122.637600615 79.8873991549 -0.000103253393147 -0.00052410534839 0.000534180893714 -101.143796285 1649.04009417
0.8896409992 0.048439917042 6.60863655121 -1.24657636761 -6.48998248768 0 -7.30066434068 0 -7.29805490215 7.30066434068 -90 -1.24657636761 0.810681853006 1.48700594954 146.963736419 -123.036263581 73.5943406471 -9.85109220855e-05 -0.000512690429244 0.000522070349993 -100.874663864 1605.47384208
0.88964339323 0.049822238811 6.79481378558 -1.24939790326 -6.67893845359 0 -7.50487541086 0 -7.50219112037 7.50487541086 -90 -1.24939790326 0.825936957269 1.49773199988 146.533313155 -123.466686845 67.1566526722 -9.29551145193e-05 -0.000496689950578 0.000505314864551 -100.597536088 1548.50745856
0.8896458638 0.051248762954 6.98676255866 -1.25063544193 -6.8738964741 0 -7.71525687687 0 -7.71249674256 7.71525687687 -90 -1.25063544193 0.841360402775 1.50732088866 146.07013981 -123.92986019 60.517862044 -8.64860641627e-05 -0.000475081913129 0.000482891439203 -100.313581491 1475.08161456
0.88964841279 0.052720566429 7.08267064486 -1.25086244318 -6.97133870495 0 -7.82033558112 0 -7.92908615661 7.82033558112 -90 -1.25086244318 0.84899687617 1.51177138037 145.834085472 -124.165914528 57.1931462945 -8.30665154627e-05 -0.000462947400591 0.00047034068093 -100.172286881 1434.53198321
0.89042558181 0.044653679356 6.07130296579 -1.22300731188 -5.94683106547 0 -6.70957391842 0 -6.71144158214 6.70957391842 -90 -1.22300731188 0.762742852948 1.44136772364 148.050667029 -121.949332971 92.0645623194 -0.000112108952201 -0.000544921500248 0.000556335610903 -101.622968042 1695.50907394
0.89042753566 0.045910267263 6.24413482318 -1.2308866728 -6.12159645663 0 -6.89958346224 0 -6.89713402396 6.89958346224 -90 -1.2308866728 0.777987005608 1.45614767168 147.705699595 -122.294300405 85.8290709917 -0.00010679610448 -0.000531010283024 0.00054164452674 -101.370757194 1671.87695031
0.89042955333 0.04720790072 6.41853345063 -1.2368095163 -6.29822618557 0 -7.09114136282 0 -7.08861961745 7.09114136282 -90 -1.2368095163 0.792915177245 1.46916184141 147.33696666 -122.66303334 79.6328120822 -0.000102766120007 -0.00052316884915 0.000533167933093 -101.111849759 1638.88409455
0.89043163639 0.048547585648 6.59843734138 -1.24117222084 -6.48063411257 0 -7.28860760251 0 -7.28601251409 7.28860760251 -90 -1.24117222084 0.807973489943 1.48099914524 146.937596356 -123.062403644 73.33183186 -9.7997871278e-05 -0.000511501920381 0.000520806438026 -100.843879756 1594.8063605
0.89043378643 0.049930349881 6.78396404327 -1.24395241315 -6.66891848405 0 -7.49209629979 0 -7.48942686019 7.49209629979 -90 -1.24395241315 0.823177815738 1.49166796002 146.506378816 -123.493621184 66.8841080449 -9.24148467671e-05 -0.000495219082806 0.000503769760359 -100.567877094 1537.29288121
0.89043600509 0.051357243617 6.94483711059 -1.2460173232 -6.83212663656 0 -7.66857669176 0 -7.69897659126 7.66857669176 -90 -1.2460173232 0.836450055194 1.50074702702 146.127408316 -123.872591684 61.412893584 -8.71807569215e-05 -0.000477795260001 0.000485685064172 -100.337550245 1479.19336173
0.89043829403 0.052829339869 7.07719233841 -1.24811657545 -6.96626559994 0 -7.81388008239 0 -7.914775208 7.81388008239 -90 -1.24811657545 0.847614482454 1.50872306829 145.818992263 -124.181007737 57.0328118676 -8.27576385952e-05 -0.000461905323763 0.000469260433946 -100.157671062 1428.29128304
0.89121866297 0.044745550996 6.06117955384 -1.21767494637 -5.93759164927 0 -6.69763771749 0 -6.69925084509 6.69763771749 -90 -1.21767494637 0.76004606822 1.43541615766 148.029369962 -121.970630038 91.8728663082 -0.000111531954964 -0.000543653262972 0.00055497718749 -101.59117579 1686.34004679
0.89122037571 0.046002932936 6.23323854154 -1.22548613999 -6.1115673046 0 -6.8867830505 0 -6.88434596163 6.8867830505 -90 -1.22548613999 0.775215745893 1.45010201148 147.684256355 -122.315743645 85.6389072986 -0.000106376728115 -0.000530385099206 0.000540948985839 -101.340250182 1662.35223848
0.89122214428 0.047301303596 6.40707246677 -1.23138559686 -6.28761079301 0 -7.07771284014 0 -7.07520389656 7.07771284014 -90 -1.23138559686 0.79010204713 1.46307751995 147.315076532 -122.684923468 79.4362612813 -0.000102327961113 -0.000522350215006 0.000532280247569 -101.082535433 1629.00098747
0.89122397005 0.04864166545 6.58638263026 -1.2357238508 -6.4694031963 0 -7.27451976637 0 -7.2719379468 7.27451976637 -90 -1.2357238508 0.805116570066 1.47487449378 146.915141821 -123.084858179 73.1267250933 -9.75389868773e-05 -0.00051046425996 0.000519701011483 -100.815695746 1584.53391667
0.89122585441 0.05002504277 6.77128579868 -1.23848009676 -6.65704177615 0 -7.47731708856 0 -7.47466140045 7.47731708856 -90 -1.23848009676 0.82027531241 1.48550271431 146.483264203 -123.516735797 66.668432689 -9.19337944566e-05 -0.000493935446995 0.000502419698787 -100.540774345 1526.60535778
0.89122779879 0.051452482064 6.86367921251 -1.23945234382 -6.75084053418 0 -7.57861532506 0 -7.683487332 7.57861532506 -90 -1.23945234382 0.827774790875 1.49045405679 146.262787974 -123.737212026 63.4473122742 -8.89664287977e-05 -0.00048456715056 0.00049266658169 -100.403610094 1494.51050443
0.89201325063 0.04482332367 6.04915363335 -1.21224339305 -5.92642872297 0 -6.68361543047 0 -6.68497001293 6.68361543047 -90 -1.21224339305 0.757186707494 1.42929452894 148.011316959 -121.988683041 91.7397693148 -0.000111011765512 -0.000542527928542 0.000553770327274 -101.562007551 1677.22158111
0.89201470511 0.046081655951 6.22046109571 -1.220006791 -6.09963369175 0 -6.87192131517 0 -6.86949558157 6.87192131517 -90 -1.220006791 0.77228762342 1.44390605296 147.666220833 -122.333779167 85.5072049339 -0.000106001062463 -0.000529848770108 0.000540349301752 -101.312365394 1652.99472493
0.8920162069 0.047380925101 6.39375539065 -1.22590215446 -6.27511413949 0 -7.06225180509 0 -7.05975465458 7.06225180509 -90 -1.22590215446 0.787137665594 1.456861597 147.296745058 -122.703254942 79.2977012039 -0.000101938853154 -0.00052165211118 0.000531520402286 -101.055825495 1619.40215413
0.89201775716 0.04872213027 6.57249782943 -1.23023428892 -6.45631548732 0 -7.25842927405 0 -7.25585970034 7.25842927405 -90 -1.23023428892 0.802113786726 1.46863589042 146.896390063 -123.103609937 72.9790611352 -9.71342809263e-05 -0.000509580807885 0.000518757337221 -100.790086164 1574.6682645
0.89201935707 0.050106292285 6.75680442021 -1.23298378219 -6.64333405084 0 -7.46056614818 0 -7.45792317364 7.46056614818 -90 -1.23298378219 0.81723209734 1.47923996048 146.463987263 -123.536012737 66.509755362 -9.1512048837e-05 -0.00049284318996 0.000501268740604 -100.516203959 1516.45715483
0.89202100785 0.051534454093 6.84890098468 -1.23395274998 -6.73682443341 0 -7.56153594285 0 -7.66605731385 7.56153594285 -90 -1.23395274998 0.824711509437 1.48417940797 146.24322 -123.75678 63.2826066815 -8.85358447306e-05 -0.000483365692153 0.000491407160854 -100.379532269 1484.21828383
0.89280909416 0.044886972846 6.03526511294 -1.20671690626 -5.91338259011 0 -6.66755156936 0 -6.66862805778 6.66755156936 -90 -1.20671690626 0.754168979248 1.42300859658 147.996490345 -122.003509655 91.6644584139 -0.00011053375848 -0.000541478787734 0.000552646703181 -101.535414371 1668.15911947
0.89281027589 0.046146412716 6.20582832628 -1.21445142442 -6.08582184232 0 -6.85502717849 0 -6.85261181677 6.85502717849 -90 -1.21445142442 0.769205336169 1.43756352048 147.651600246 -122.348399754 85.4337796226 -0.000105669045611 -0.00052940362654 0.000539847711391 -101.287071569 1643.81137571
0.89281149598 0.047446742586 6.37860803832 -1.22036186269 -6.26076242851 0 -7.04478712715 0 -7.04230077244 7.04478712715 -90 -1.22036186269 0.784024698639 1.45051767357 147.281981453 -122.718018547 79.2170598941 -0.000101598829424 -0.000521077564935 0.000530891340448 -101.031691427 1610.09512295
0.89281275538 0.048788958397 6.55680871816 -1.22470606746 -6.44139715671 0 -7.24036492895 0 -7.23780658849 7.24036492895 -90 -1.22470606746 0.798967772237 1.46228679842 146.881351892 -123.118648108 72.8888603299 -9.67838593898e-05 -0.000508855227093 0.00051797900143 -100.767024894 1565.2172624
0.89281405503 0.050174077654 6.74054563825 -1.22746584006 -6.62782143587 0 -7.44187220153 0 -7.43924091209 7.44187220153 -90 -1.22746584006 0.814050765654 1.47288300563 146.44855993 -123.55144007 66.4081910372 -9.11497924996e-05 -0.000491946696461 0.000500321201078 -100.494141862 1506.85660404
0.89281539591 0.051603139864 6.83235862244 -1.22843960935 -6.7210162177 0 -7.54252877074 0 -7.64671517253 7.54252877074 -90 -1.22843960935 0.821512553038 1.47781824993 146.227566343 -123.772433657 63.1749000129 -8.81673538248e-05 -0.000482379767388 0.000490371012453 -100.35794032 1474.5424336
0.89360594254 0.044936478448 6.01952069057 -1.20109550537 -5.89846047819 0 -6.64945377871 0 -6.6502542808 6.64945377871 -90 -1.20109550537 0.750993300524 1.41655853393 147.984914212 -122.015085788 91.6470699636 -0.000110117627578 -0.000540604131524 0.000551706523314 -101.511375787 1659.15390479
0.89360683973 0.046197184054 6.18936640628 -1.20882225353 -6.07015839032 0 -6.83612988931 0 -6.83372391776 6.83612988931 -90 -1.20882225353 0.765971498998 1.43107761583 147.640394475 -122.359605525 85.4184272229 -0.000105380281977 -0.000529050263574 0.000539444688323 -101.264336221 1634.8057203
0.89360776598 0.047498737767 6.36165654919 -1.21476684912 -6.24458225318 0 -7.02534799108 0 -7.02287143657 7.02534799108 -90 -1.21476684912 0.780765737897 1.44404886902 147.270787927 -122.729212073 79.1942597491 -0.00010130762028 -0.000520627925772 0.000530394304553 -101.010103821 1601.08407611
0.89360872202 0.04884213244 6.53934139177 -1.21914121174 -6.42467474765 0 -7.22035583753 0 -7.21780772065 7.22035583753 -90 -1.21914121174 0.795681089873 1.45583023826 146.87003153 -123.12996847 72.8561330577 -9.64875347589e-05 -0.000508289451618 0.000517367840863 -100.746485217 1556.1851685
0.89360970855 0.050228382375 6.72253549115 -1.22192817642 -6.6105304128 0 -7.42126426251 0 -7.41864363296 7.42126426251 -90 -1.22192817642 0.810733849713 1.46643475615 146.436987998 -123.563012002 66.3638358247 -9.08469182345e-05 -0.000491248534652 0.000499579560131 -100.47456366 1497.80805735
0.89361072632 0.051658523761 6.81407813577 -1.2229147658 -6.70344233825 0 -7.52162277687 0 -7.62548981564 7.52162277687 -90 -1.2229147658 0.81818043862 1.47137342993 146.21583346 -123.78416654 63.1243317269 -8.78608902762e-05 -0.000481612283652 0.000489560960102 -100.3388109 1465.48738955
0.89440354329 0.044971824822 6.00195390166 -1.19538272397 -5.88169624065 0 -6.62935963342 0 -6.62987830718 6.62935963342 -90 -1.19538272397 0.747663392766 1.4099492611 147.976576883 -122.023423117 91.6870161591 -0.000109755121938 -0.000539866726205 0.000550911624796 -101.489858393 1650.20593755
0.89440414686 0.046233955162 6.17110175747 -1.20312090449 -6.05267029503 0 -6.81525893467 0 -6.81286144932 6.81525893467 -90 -1.20312090449 0.762588639647 1.42445101453 147.632595895 -122.367404105 85.4608934626 -0.000105134379432 -0.000528789222727 0.000539140658219 -101.244125557 1625.97736107
0.89440476996 0.047536896695 6.31705041378 -1.20920254877 -6.20022444853 0 -6.97569359437 0 -7.00149613797 6.97569359437 -90 -1.20920254877 0.775469145834 1.43650402959 147.328627347 -122.671372653 80.2725244204 -0.000101843696614 -0.000522073080566 0.000531915068382 -101.037246817 1600.29248833
0.89440541304 0.048881639295 6.53017488172 -1.21635229586 -6.41587397565 0 -7.20987837268 0 -7.19589249993 7.20987837268 -90 -1.21635229586 0.794004397033 1.45257831134 146.865304196 -123.134695804 72.8541272181 -9.63529609193e-05 -0.000508046826964 0.000517104369333 -100.736850254 1551.77792384
0.8944060766 0.050269194183 6.71310414763 -1.21915695384 -6.60145163872 0 -7.4104948955 0 -7.39616063569 7.4104948955 -90 -1.21915695384 0.809043256786 1.46319088867 146.432169413 -123.567830587 66.3559651719 -9.07103969874e-05 -0.000490949452249 0.000499260632723 -100.465399609 1493.4256372
0.89440676112 0.051700594353 6.80451486108 -1.22015189418 -6.69422526136 0 -7.51070808763 0 -7.60241042446 7.51070808763 -90 -1.22015189418 0.816482826272 1.46813311742 146.210950811 -123.789049189 63.1133445182 -8.7723238914e-05 -0.00048128362112 0.000489212929718 -100.329865714 1461.11881479
0.89520164711 0.044993000919 5.98260586028 -1.18957927095 -5.86313199941 0 -6.60731458211 0 -6.60752993137 6.60731458211 -90 -1.18957927095 0.744182582706 1.40318310739 147.971421559 -122.028578441 91.7830266103 -0.000109422968124 -0.000539158157929 0.000550151102028 -101.470791014 1641.30453254