TITLE = "Electromagnetic Field"
VARIABLES = X Y E ER EI EvR EvI EvR' EvI' Ev EvPhase EpR EpI Ep EpPhase EpToEvPhaseShift elConductivity Jr Ji J Jphase QJ
ZONE N=303, E=266, F=FEPOINT, ET=QUADRILATERAL
0.83195942 0.023086233684 4.19139926814 -1.24041178362 -4.00364913948 0 -4.68002655721 0 -4.70722840095 4.68002655721 -90 -1.24041178362 0.676377417731 1.41283679318 151.397046213 -118.602953787 198.962330994 -0.000606612141862 -0.0019579483296 0.00204976582859 -107.214042443 1747.66798728
0.83229714604 0.023764794737 4.24807588412 -1.25129259706 -4.059603201 0 -4.74303089501 0 -4.83602893589 4.74303089501 -90 -1.25129259706 0.683427694011 1.4257655947 151.357989759 -118.642010241 196.245642381 -0.000600359674273 -0.00194757212637 0.00203800822725 -107.131988385 1770.39647586
0.8326460246 0.02443360747 4.36086700269 -1.2725538721 -4.17105847109 0 -4.86838623531 0 -4.96202295843 4.86838623531 -90 -1.2725538721 0.697327764226 1.45108938237 151.278698167 -118.721301833 190.893879215 -0.000587776715419 -0.00192637398614 0.00201405225755 -106.967542744 1814.78955569
0.83300596633 0.025093161357 4.47132120773 -1.29259623106 -4.28040512521 0 -4.99108688631 0 -5.08530397092 4.99108688631 -90 -1.29259623106 0.7106817611 1.47508463608 151.19790686 -118.80209314 185.760255514 -0.000575171612403 -0.00190448802473 0.00198944841492 -106.804253806 1856.58901695
0.83337687986 0.025743838852 4.57949550378 -1.31146756149 -4.38768621296 0 -5.11119696391 0 -5.20594435843 5.11119696391 -90 -1.31146756149 0.723510750954 1.49780377483 151.115652025 -118.884347975 180.834674747 -0.000562541066081 -0.00188187875524 0.00196416082657 -106.642206371 1895.88030674
0.83375866811 0.026385927059 4.68543202146 -1.32921153247 -4.49293079378 0 -5.2287640989 0 -5.3239980295 5.2287640989 -90 -1.32921153247 0.735833305123 1.51929431068 151.031976748 -118.968023252 176.107694898 -0.000549884021541 -0.00185851739174 0.00193816063769 -106.481487879 1932.7435905
0.83415122851 0.027019633844 4.78916069575 -1.34586846045 -4.59615647479 0 -5.34382243059 0 -5.43950382735 5.34382243059 -90 -1.34586846045 0.747665955798 1.53959982487 150.946930816 -119.053069184 171.569843504 -0.000537204588059 -0.00183439240083 0.00191143695803 -106.322187335 1967.24777575
0.83455445689 0.027645106995 4.890700922 -1.36147591876 -4.69737095878 0 -5.45639446227 0 -5.55248940314 5.45639446227 -90 -1.36147591876 0.759023503491 1.55876064775 150.860571002 -119.139428998 167.211931641 -0.000524508462036 -0.00180949799768 0.00188398481771 -106.164395268 1999.45384403
0.83496824229 0.028262436644 4.9900644799 -1.37606946652 -4.79657487786 0 -5.56649431831 0 -5.66297197387 5.56649431831 -90 -1.37606946652 0.769919440449 1.5768146991 150.772960011 -119.227039989 163.025257614 -0.000511802815073 -0.00178383460137 0.00185580557635 -106.008201318 2029.41883861
0.83539247071 0.028871670379 5.08725645156 -1.38968298607 -4.89376265025 0 -5.67412877231 0 -5.77096133899 5.67412877231 -90 -1.38968298607 0.780366122063 1.59379786404 150.684166783 -119.315833217 158.988555693 -0.000499058466256 -0.00175727505086 0.00182676789859 -105.853694535 2057.02434966
0.83582702544 0.029472820902 5.13555199516 -1.39628115065 -4.94209401401 0 -5.72759814914 0 -5.87646147543 5.72759814914 -90 -1.39628115065 0.785504135133 1.60206672707 150.639254444 -119.360745556 156.993452171 -0.000492635203626 -0.00174366709011 0.00181192283637 -105.776484681 2070.26435629
0.83533121232 0.022600704535 4.11635512687 -1.22025168147 -3.93133060456 0 -4.59527612021 0 -4.52602797778 4.59527612021 -90 -1.22025168147 0.663945515647 1.38918665353 151.450103405 -118.549896595 200.313040417 -0.000585533788548 -0.00188650893442 0.00197528907647 -107.244485388 1697.24525407
0.83567157165 0.023282220001 4.17273370824 -1.23121328867 -3.98695114673 0 -4.65794447565 0 -4.65331887228 4.65794447565 -90 -1.23121328867 0.670993328922 1.40218433912 151.411570455 -118.588429545 197.596902033 -0.000579754827392 -0.00187727147668 0.00196475773107 -107.16295246 1720.06489017
0.83602320456 0.023954514085 4.28493689666 -1.25263969341 -4.09774753442 0 -4.78263769206 0 -4.77795963044 4.78263769206 -90 -1.25263969341 0.684890157643 1.42764969472 151.333324653 -118.666675347 192.244681928 -0.000568088967605 -0.00185828106831 0.00194317844647 -106.999511969 1764.66570942
0.83638601857 0.024617976912 4.39486279945 -1.27285915898 -4.20649537731 0 -4.90474414037 0 -4.90002141745 4.90474414037 -90 -1.27285915898 0.698248763057 1.45180057434 151.253539138 -118.746460862 187.106055254 -0.000556331413383 -0.00183844430518 0.00192077868079 -106.837090454 1806.73484883
0.83675991952 0.025272907927 4.50256006727 -1.29191675661 -4.31322976954 0 -5.02431852394 0 -5.01955804189 5.02431852394 -90 -1.29191675661 0.711088754397 1.47468622797 151.172253108 -118.827746892 182.171802978 -0.000544487804118 -0.00181774833834 0.00189754693531 -106.675787084 1846.34768664
0.8371448078 0.025919524775 4.60806385981 -1.30985382699 -4.41797311085 0 -5.14140061148 0 -5.13660796985 5.14140061148 -90 -1.30985382699 0.723427500631 1.49635154973 151.089512279 -118.910487721 177.433353693 -0.000532565213926 -0.00179618552017 0.00187347704529 -106.515702055 1883.57741943
0.83754057851 0.026557977149 4.71139829906 -1.32670875952 -4.52073743643 0 -5.25601797855 0 -5.25119720729 5.25601797855 -90 -1.32670875952 0.735280542118 1.5168379568 151.005368716 -118.994631284 172.882069022 -0.000520574975214 -0.00177376341393 0.00184857858242 -106.356935691 1918.48850164
0.83794712539 0.027188364133 4.8125779386 -1.34251752919 -4.62152579217 0 -5.36818765352 0 -5.3633427286 5.36818765352 -90 -1.34251752919 0.746661861351 1.53618398797 150.91988114 -119.08011886 168.509294331 -0.000508528517227 -0.00175049122722 0.00182286266929 -106.19958856 1951.13697481
0.83836433544 0.027810734961 4.91161052547 -1.35731436957 -4.72033491642 0 -5.47791919302 0 -5.47305287876 5.47791919302 -90 -1.35731436957 0.757584276592 1.55442608069 150.833113913 -119.166886087 164.30681383 -0.000496438037821 -0.00172638268856 0.00179634493447 -106.043759222 1981.57630483
0.83879209276 0.028425102886 5.00849778588 -1.37113206158 -4.81715597343 0 -5.58521556163 0 -5.5803300787 5.58521556163 -90 -1.37113206158 0.768059588206 1.57159889219 150.745137375 -119.254862625 160.260148781 -0.000484298568485 -0.00170139255812 0.00176897954521 -105.889544663 2009.76945831
0.83923027886 0.029031451747 5.05664561121 -1.37783281593 -4.86530892831 0 -5.63852130956 0 -5.685172167 5.63852130956 -90 -1.37783281593 0.773212381245 1.57996318528 150.700629572 -119.299370428 158.263233214 -0.000478182420468 -0.00168859667789 0.00175499813178 -105.812465675 2023.35444744
0.83818084288 0.021449235697 3.78242687572 -1.13711122573 -3.60745493811 0 -4.22025312172 0 -4.23159518562 4.22025312172 -90 -1.13711122573 0.612798183605 1.29172115935 151.67942325 -118.32057675 210.084415781 -0.000527600140836 -0.00167379732988 0.00175498131333 -107.495450022 1502.81293024
0.83851186614 0.022142716004 3.90765645412 -1.16626362375 -3.72955339767 0 -4.36030374498 0 -4.36008126512 4.36030374498 -90 -1.16626362375 0.63075034731 1.32590331225 151.595770421 -118.404229579 205.354862991 -0.000537201511936 -0.00171790183292 0.00179993906961 -107.367273514 1567.61242418
0.83885436381 0.022827067253 4.02471725238 -1.19164674486 -3.84425421342 0 -4.49083072208 0 -4.48598956384 4.49083072208 -90 -1.19164674486 0.646576508657 1.3557600767 151.517351539 -118.482648461 200.328775548 -0.000537054409666 -0.0017324553063 0.00181379057392 -107.224099818 1622.31458232
0.83920825009 0.023502693189 4.13581709406 -1.21340954242 -3.95380597819 0 -4.61428060505 0 -4.6093910143 4.61428060505 -90 -1.21340954242 0.660474626856 1.38151795899 151.441149352 -118.558850648 194.97911254 -0.000527204904106 -0.001717779519 0.00179686359283 -107.062665199 1667.35215351
0.83957342944 0.024169890096 4.2447482464 -1.23398679469 -4.06141892319 0 -4.73526746879 0 -4.73033637112 4.73526746879 -90 -1.23398679469 0.673848545597 1.4059864425 151.363334138 -118.636665862 189.833645087 -0.000517132348964 -0.00170196160562 0.00177879349552 -106.901976666 1709.97648088
0.83994980495 0.024828879021 4.35154412074 -1.2534183591 -4.16711364753 0 -4.85382885603 0 -4.84886246906 4.85382885603 -90 -1.2534183591 0.686715208498 1.42920892495 151.28395014 -118.71604986 184.885036206 -0.000506859503474 -0.00168503263607 0.00175961600565 -106.74216141 1750.24486258
0.84033727455 0.025479812019 4.45622722669 -1.27174127545 -4.27090048111 0 -4.96999027549 0 -4.96499366373 4.96999027549 -90 -1.27174127545 0.699089794387 1.45122547877 151.20304745 -118.79695255 180.126253665 -0.000496408144254 -0.00166702300952 0.0017393658347 -106.583344481 1788.21511417
0.84073573106 0.026122783867 4.55881118755 -1.28899038037 -4.37278140835 0 -5.08376745268 0 -5.07874423313 5.08376745268 -90 -1.28899038037 0.710986044336 1.47207354491 151.120681897 -118.879318103 175.550305888 -0.000485803040167 -0.0016479759126 0.00171809072303 -106.425648277 1823.94278392
0.84114506613 0.026757847671 4.65930184892 -1.30519870561 -4.47275110959 0 -5.19516757175 0 -5.19012139689 5.19516757175 -90 -1.30519870561 0.722416462165 1.4917883761 151.036915393 -118.963084607 171.149849462 -0.000475066971346 -0.00162793081297 0.00169583420703 -106.269192968 1857.47654256
0.84156516481 0.027385014073 4.75769973257 -1.32039804479 -4.57079935423 0 -5.30419200583 0 -5.29912539374 5.30419200583 -90 -1.32039804479 0.733392651601 1.51040369355 150.951814982 -119.048185018 166.917612027 -0.000464221440625 -0.00160692613907 0.00167263839996 -106.114094531 1888.86266432
0.84199590936 0.028004263931 4.85400057382 -1.33461915055 -4.66691150301 0 -5.41083691867 0 -5.40575190264 5.41083691867 -90 -1.33461915055 0.743925415662 1.52795190524 150.865453231 -119.134546769 162.846547916 -0.000453290080104 -0.0015850109143 0.00164855612461 -105.960465468 1918.14606013
0.84243717951 0.028615553858 4.90186369656 -1.34152242263 -4.71471915095 0 -5.46382688537 0 -5.50999315454 5.46382688537 -90 -1.34152242263 0.749107734414 1.53650487976 150.821745446 -119.178254554 160.840563145 -0.00044777812518 -0.00157377447608 0.00163623724096 -105.883648287 1932.33635542
0.84083382152 0.020314118474 3.54097239123 -1.07678892426 -3.37327898165 0 -3.949723238 0 -3.95244124673 3.949723238 -90 -1.07678892426 0.576444256354 1.22137724233 151.838237777 -118.161762223 218.471120283 -0.000487081559472 -0.0015258904971 0.00160174600194 -107.703673001 1369.64848423
0.84115473582 0.021018679799 3.66240691319 -1.10601809898 -3.4914060901 0 -4.08546754442 0 -4.08200747994 4.08546754442 -90 -1.10601809898 0.594061454323 1.25546290819 151.760503021 -118.239496979 213.65990166 -0.000499183704292 -0.00157582778725 0.00165300457816 -107.579603753 1432.75015581
0.84148732312 0.021714290566 3.77778673936 -1.13210629932 -3.60416112012 0 -4.21409630301 0 -4.20908314573 4.21409630301 -90 -1.13210629932 0.609935182893 1.28595773071 151.68703628 -118.31296372 208.515684613 -0.000501257302519 -0.00159573045649 0.0016726089111 -107.439697232 1487.77612545
0.84183149593 0.022401340642 3.88998604621 -1.15537497294 -3.71444040303 0 -4.33880091717 0 -4.33373382031 4.33880091717 -90 -1.15537497294 0.624360514137 1.31328565664 151.614459009 -118.385540991 202.977843284 -0.000493420182049 -0.00158624442111 0.00166121665779 -107.279857538 1535.54677665
0.84218716523 0.023080128605 4.00008407287 -1.17744072906 -3.82286167116 0 -4.46112002686 0 -4.4560081293 4.46112002686 -90 -1.17744072906 0.638258355705 1.33930668263 151.540159331 -118.459840669 197.639410617 -0.000485225569678 -0.00157534892184 0.00164838525428 -107.120350413 1580.97703308
0.84255423258 0.023750862811 4.108112349 -1.19834136175 -3.92944380237 0 -4.58108880437 0 -4.57593828931 4.58108880437 -90 -1.19834136175 0.651645002003 1.36406208681 151.464179355 -118.535820645 192.495332181 -0.000476706559678 -0.00156309695715 0.00163417471781 -106.961330827 1624.10820481
0.84293259853 0.024413690867 4.21409044199 -1.21811180187 -4.03419429611 0 -4.69872921605 0 -4.69354571847 4.69872921605 -90 -1.21811180187 0.664534919941 1.38758975575 151.386567451 -118.613432549 187.540251939 -0.000467898811143 -0.00154955316155 0.00161865683278 -106.802951265 1664.98166262
0.84332215865 0.025068703393 4.31802937 -1.2367850127 -4.137112577 0 -4.81405382696 0 -4.80884195807 4.81405382696 -90 -1.2367850127 0.676941249962 1.40992520847 151.307377263 -118.692622737 182.76849561 -0.000458834516765 -0.00153477472389 0.00160189514922 -106.64535936 1703.63887636
0.84372280363 0.025715943738 4.41993321907 -1.25439245394 -4.23819154968 0 -4.9270676057 0 -4.92183063413 4.9270676057 -90 -1.25439245394 0.688876056028 1.43110212113 151.226667663 -118.773332337 178.174564895 -0.000449548085457 -0.00151883026846 0.0015839647118 -106.488697689 1740.12506878
0.84413442315 0.026355421962 4.51979992542 -1.27096435329 -4.33741833892 0 -5.03776880112 0 -5.03251010724 5.03776880112 -90 -1.27096435329 0.700350462203 1.45115262854 151.144503128 -118.855496872 173.752609762 -0.000440071262179 -0.0015017835629 0.0015649350637 -106.333104456 1774.48298924
0.8445569004 0.026987112581 4.61762344737 -1.28653017331 -4.43477641977 0 -5.14615135714 0 -5.14087325422 5.14615135714 -90 -1.28653017331 0.711374937378 1.47010786805 151.06095283 -118.93904717 169.496273786 -0.00043043240388 -0.00148369121333 0.00154486784268 -106.178711756 1806.75125249
0.8449901159 0.027610966136 4.71339407835 -1.30111872366 -4.53024591185 0 -5.2522052634 0 -5.2469096305 5.2522052634 -90 -1.30111872366 0.721959351552 1.48799810261 150.976091068 -119.023908932 165.39925872 -0.000420660713035 -0.00146461675835 0.00152383150867 -106.02564651 1836.96812429
0.84543394772 0.028226913772 4.76843778047 -1.30718830904 -4.58576405109 0 -5.31265734448 0 -5.35060637356 5.31265734448 -90 -1.30718830904 0.726893293386 1.49569936031 150.923149773 -119.076850227 162.549124728 -0.000407172226066 -0.00142830874991 0.00148521295694 -105.910810642 1847.94371563
0.84588826636 0.028834864029 4.78401588271 -1.3050557228 -4.60256857922 0 -5.32888599193 0 -5.45194778458 5.32888599193 -90 -1.3050557228 0.726317412718 1.49355529648 150.902255344 -119.097744656 160.80912366 -0.000389268251602 -0.0013728408622 0.00142696243981 -105.830654929 1840.20376619
0.84358710198 0.019913993712 3.487061033 -1.0614919614 -3.32157010603 0 -3.88893972386 0 -3.81886530516 3.88893972386 -90 -1.0614919614 0.567369617833 1.203608804 151.8760136 -118.1239864 219.623374337 -0.000463663920323 -0.00145094123452 0.00152322519035 -107.722923377 1335.37760738
0.84390906429 0.020619927538 3.54392180537 -1.0741043412 -3.37722611888 0 -3.95216330967 0 -3.94699688633 3.95216330967 -90 -1.0741043412 0.574937190795 1.21829969674 151.842154962 -118.157845038 216.741289195 -0.00046091279245 -0.00144915878642 0.00152069275718 -107.644520058 1360.93865888
0.84424280547 0.021317553539 3.65713730066 -1.09882955064 -3.48815131091 0 -4.07802475747 0 -4.07280006048 4.07802475747 -90 -1.09882955064 0.58987344656 1.24714811877 151.773214423 -118.226785577 211.045727804 -0.000455131781863 -0.00144473003617 0.00151472588179 -107.486903417 1411.17406332
0.84458823473 0.022007144648 3.76832994938 -1.12234230161 -3.5973086033 0 -4.20159060272 0 -4.19631622933 4.20159060272 -90 -1.12234230161 0.604281999419 1.27468053661 151.702444546 -118.297555454 205.539185393 -0.000448865953022 -0.00143864774017 0.00150704765355 -107.329163892 1459.17775146
0.84494526019 0.022688901866 3.877525798 -1.14467696227 -3.70471185637 0 -4.32288965311 0 -4.31757391321 4.32288965311 -90 -1.14467696227 0.618177796739 1.30093457219 151.629886726 -118.370113274 200.219805263 -0.00044216058739 -0.0014309936981 0.00149774950418 -107.171489078 1504.96891393
0.84531378082 0.023362951987 3.98474133505 -1.16586577403 -3.81036582018 0 -4.44194018736 0 -4.43658862248 4.44194018736 -90 -1.16586577403 0.631574367176 1.32594530169 151.555586893 -118.444413107 195.084688145 -0.000435058832762 -0.00142184740839 0.00148691990685 -107.014059092 1548.57017257
0.84569369483 0.0240293745 4.08998364634 -1.18593906364 -3.91426624293 0 -4.55875014017 0 -4.55336788242 4.55875014017 -90 -1.18593906364 0.644483897239 1.34974547652 151.479596715 -118.520403285 190.130336705 -0.000427604863348 -0.00141129599361 0.0014746548036 -106.857049031 1590.00734428
0.84608489569 0.024688203053 4.19325338967 -1.20492597501 -4.01640276854 0 -4.67332041638 0 -4.66791168515 4.67332041638 -90 -1.20492597501 0.656917647834 1.37236636288 151.401972672 -118.598027328 185.352602399 -0.000419838264329 -0.00139941631243 0.00146103886833 -106.700626857 1629.30827418
0.84648727216 0.025339433311 4.294546053 -1.22285479524 -4.11676016029 0 -4.7856462945 0 -4.78021405681 4.7856462945 -90 -1.22285479524 0.668886134212 1.39383811186 151.322776035 -118.677223965 180.747153865 -0.000411799244489 -0.00138629207632 0.00144616341243 -106.544953428 1666.50541556
0.84690071209 0.025983035433 4.39385244111 -1.23975311191 -4.21531876814 0 -4.89571797302 0 -4.89026537534 4.89571797302 -90 -1.23975311191 0.68039920488 1.414189933 151.24207329 -118.75792671 176.309482415 -0.000403525376686 -0.00137200291086 0.00143011498326 -106.390183398 1701.63409422
0.84732509699 0.026618950453 4.49116059476 -1.25564818963 -4.31205642362 0 -5.00352270265 0 -4.99805188191 5.00352270265 -90 -1.25564818963 0.691466279027 1.43345053615 151.159935269 -118.840064731 172.034374017 -0.000395050123631 -0.00135661943902 0.00141297024386 -106.23646367 1734.72715032
0.84776030577 0.027247100821 4.58645590063 -1.27056700293 -4.40694854694 0 -5.10904491 0 -5.10355761317 5.10904491 -90 -1.27056700293 0.702096363058 1.45164816586 151.076437599 -118.923562401 167.916342637 -0.000386406513989 -0.00134021537147 0.00139480862216 -106.083934491 1765.81698435
0.84820621497 0.027867394087 4.67972170042 -1.2845363471 -4.49996875054 0 -5.21226687422 0 -5.20676511473 5.21226687422 -90 -1.2845363471 0.712298123673 1.46881073139 150.991660681 -119.008339319 163.949893152 -0.000377623440755 -0.00132285464406 0.00137569893854 -105.932729616 1794.93705006
0.84866269357 0.028479718893 4.73477808785 -1.29062086654 -4.5554798191 0 -5.27273963854 0 -5.30765487116 5.27273963854 -90 -1.29062086654 0.717259819435 1.47653821591 150.937345501 -119.062654499 161.198755799 -0.000364851747355 -0.00128770988821 0.00133840034427 -105.818436267 1806.79192023
0.8491296136 0.0290839619 4.75311864577 -1.28914478232 -4.57495820648 0 -5.29209462799 0 -5.40620818026 5.29209462799 -90 -1.28914478232 0.717136421513 1.47518775648 150.91331551 -119.08668449 159.521703255 -0.000347294119543 -0.00123248847146 0.00128048468861 -105.73692624 1801.9680761
0.84610685437 0.019547820467 3.38069314393 -1.03117278398 -3.21959126125 0 -3.76903514987 0 -3.69949757284 3.76903514987 -90 -1.03117278398 0.549443888614 1.16842047211 151.950288095 -118.049711905 221.96727372 -0.000414866591324 -0.00129537951787 0.00136019209446 -107.759499436 1268.5261056
0.8464295217 0.020255046945 3.43704551832 -1.0438729993 -3.2746890499 0 -3.83168225103 0 -3.82634735184 3.83168225103 -90 -1.0438729993 0.556993201128 1.18317930206 151.917272728 -118.082727272 219.114055848 -0.000412838506885 -0.00129505328005 0.00135926530866 -107.682252043 1294.09835169
0.84676406383 0.020954553496 3.54925314893 -1.06878049855 -3.38450612033 0 -3.95640177854 0 -3.95101370393 3.95640177854 -90 -1.06878049855 0.571895658209 1.2121705728 151.850020204 -118.149979796 213.471026711 -0.000408482308803 -0.00129349882986 0.00135646621624 -107.526877906 1344.41141403
0.8471103872 0.021646505839 3.65954762329 -1.09250478469 -3.49266314437 0 -4.07895003404 0 -4.07351645178 4.07895003404 -90 -1.09250478469 0.586286889665 1.23987911846 151.780875496 -118.219124504 208.002504596 -0.000403585348489 -0.0012901957533 0.00135184681048 -107.371109309 1392.63371128
0.84746839745 0.022331015527 3.76793881144 -1.1150740659 -3.59915888874 0 -4.1993376862 0 -4.19386617184 4.1993376862 -90 -1.1150740659 0.600178797461 1.26633568954 151.709883419 -118.290116581 202.70891375 -0.000398199183974 -0.00128524308294 0.00134551697999 -107.215158115 1438.76372683
0.84783799135 0.023008134589 3.87442976788 -1.13651547445 -3.70398554236 0 -4.3175679382 0 -4.31206346166 4.3175679382 -90 -1.13651547445 0.613582395835 1.29156966924 151.637092906 -118.362907094 197.589408792 -0.000392372697952 -0.00127873626647 0.00133758226398 -107.059226504 1482.80689397
0.8482190651 0.023677880083 3.97901643082 -1.15685509059 -3.80712840819 0 -4.43363620331 0 -4.42810344542 4.43363620331 -90 -1.15685509059 0.626507795112 1.31560908465 151.562558213 -118.437441787 192.642181584 -0.000386154608037 -0.00127077496549 0.0013281520564 -106.903509566 1524.77380915
0.84861151034 0.024340233456 4.08169020336 -1.17611852765 -3.9085684367 0 -4.54753297942 0 -4.5419758076 4.54753297942 -90 -1.17611852765 0.638964542722 1.33848128132 151.486338031 -118.513661969 187.864651695 -0.000379588863251 -0.00126144839209 0.0013173242489 -106.748193393 1564.68034093
0.8490152141 0.024995146682 4.18243889329 -1.19433113393 -4.00828315637 0 -4.65924489692 0 -4.65366600585 4.65924489692 -90 -1.19433113393 0.650961740549 1.36021315444 151.408495493 -118.591504507 183.253532473 -0.00037271850229 -0.00125084781581 0.0013051983323 -106.593455257 1602.54604293
0.84943006266 0.02564255337 4.28124693432 -1.2115180474 -4.10624689653 0 -4.76875496866 0 -4.76315729142 4.76875496866 -90 -1.2115180474 0.662508072126 1.38083120742 151.329098627 -118.670901373 178.805448882 -0.000365584001887 -0.00123906096087 0.00129186956829 -106.439464689 1638.39733495
0.849855936 0.026282363891 4.37809708052 -1.22770449126 -4.20243247336 0 -4.87604447116 0 -4.87042998321 4.87604447116 -90 -1.22770449126 0.673611997801 1.40036190248 151.248219531 -118.751780469 174.516445243 -0.000358222023286 -0.00122616778408 0.00127742459813 -106.286382089 1672.26236508
0.85029271161 0.026914474975 4.47297033391 -1.24291573391 -4.29681112979 0 -4.98109286482 0 -4.97546319066 4.98109286482 -90 -1.24291573391 0.684281735026 1.41883161367 151.165934829 -118.834065171 170.381828223 -0.000350667533465 -0.00121224729184 0.00126194859421 -106.134359927 1704.16743871
0.85074026464 0.027538772577 4.5658464008 -1.2571771429 -4.38935299766 0 -5.08387829996 0 -5.07823536081 5.08387829996 -90 -1.2571771429 0.694525302299 1.43626669285 151.082325679 -118.917674321 166.396790824 -0.000342951215643 -0.00119736838365 0.00124551575711 -105.983543042 1734.14104441
0.85119846273 0.028155127126 4.65670519436 -1.27051437709 -4.48002860608 0 -5.18437927785 0 -5.17872356865 5.18437927785 -90 -1.27051437709 0.704350671764 1.45269370933 150.997476726 -119.002523274 162.556422085 -0.000335103424128 -0.00118160354221 0.00122820357777 -105.834067122 1762.21395394
0.85166717659 0.028763409994 4.71182014933 -1.2765818373 -4.53558853524 0 -5.24492206383 0 -5.27690626974 5.24492206383 -90 -1.2765818373 0.709333528587 1.46041648054 150.941533808 -119.058466192 159.895827209 -0.000323031915271 -0.00114759852549 0.00119219692477 -105.720088301 1774.83621011
0.85214626951 0.029363480806 4.73298301349 -1.27571735692 -4.5578145455 0 -5.26746382587 0 -5.37276126307 5.26746382587 -90 -1.27571735692 0.709649280365 1.45981398674 150.913919814 -119.086080186 158.267208525 -0.000305816752013 -0.0010926056881 0.00113459731865 -105.636759185 1772.68201449
0.84838062129 0.019217405364 3.28667575567 -1.00408474524 -3.12954482874 0 -3.66309362481 0 -3.59408621528 3.66309362481 -90 -1.00408474524 0.533548796076 1.13704038963 152.015183922 -117.984816078 224.184743942 -0.00036628579493 -0.00114169023036 0.00119900872937 -107.788511897 1210.90927448
0.84870371753 0.019925828159 3.34257942863 -1.01685835221 -3.18415072737 0 -3.7252312995 0 -3.71980391406 3.7252312995 -90 -1.01685835221 0.54108057213 1.15185497796 151.982913208 -118.017086792 221.362637795 -0.000364854492843 -0.00114245175121 0.00119929872909 -107.712334679 1236.49585122
0.84903877391 0.020627061335 3.45389753599 -1.0419186515 -3.29299127602 0 -3.84894169925 0 -3.84346628631 3.84894169925 -90 -1.0419186515 0.555950423237 1.18096411127 151.917150396 -118.082849604 215.776697998 -0.000361686445135 -0.00114307559405 0.00119893351372 -107.559036496 1286.88938964
0.84938569463 0.021321173687 3.56339951889 -1.06582249143 -3.40026685685 0 -3.97059074297 0 -3.96507411688 3.97059074297 -90 -1.06582249143 0.570323886124 1.20882086795 151.849439288 -118.150560712 210.3512774 -0.000357955752204 -0.0011419425433 0.00119673212675 -107.40509769 1335.32291118
0.84974438334 0.022008195917 3.6710809626 -1.08859250918 -3.50596296037 0 -4.09017309486 0 -4.08462215116 4.09017309486 -90 -1.08859250918 0.584210134491 1.23544979566 151.779827339 -118.220172661 205.08880048 -0.000353715921701 -0.00113915836145 0.00119281156028 -107.25075097 1381.7756101
0.85011473499 0.022688112479 3.77693305742 -1.11025120617 -3.61006072865 0 -4.20767865545 0 -4.20209782999 4.20767865545 -90 -1.11025120617 0.5976179268 1.26087512782 151.708365805 -118.291634195 199.990289913 -0.000349017769855 -0.00113482516616 0.00118728439755 -107.096217658 1426.23691302
0.8504966441 0.023360884016 3.88094189548 -1.13082080639 -3.7125362797 0 -4.32309178839 0 -4.31748533757 4.32309178839 -90 -1.13082080639 0.610555508693 1.28512061052 151.635110939 -118.364889061 195.05550404 -0.000343911279931 -0.00112904716294 0.00118026484993 -106.941710355 1468.70322146
0.85089000078 0.024026444806 3.98309070537 -1.15032371214 -3.81336292034 0 -4.43639380797 0 -4.43076526377 4.43639380797 -90 -1.15032371214 0.623030887625 1.30821003166 151.560123129 -118.439876871 190.283266868 -0.000338441709368 -0.00112191825813 0.00117185578409 -106.78743117 1509.17851868
0.85129469061 0.024684707353 4.08336051016 -1.16878259604 -3.91251181773 0 -4.54756371261 0 -4.54191550633 4.54756371261 -90 -1.16878259604 0.635051894883 1.33016732911 151.483466931 -118.516533069 185.671506342 -0.00033265293773 -0.00111353285177 0.0011621600345 -106.633572007 1547.67216347
0.85171059852 0.025335572255 4.18173011383 -1.18622036318 -4.00995200643 0 -4.65657817303 0 -4.65091302924 4.65657817303 -90 -1.18622036318 0.646626166598 1.35101654593 151.405211537 -118.594788463 181.217688976 -0.000326585679715 -0.0011039797528 0.00115127407403 -106.48031576 1584.19992602
0.85213760318 0.025978922188 4.27817759785 -1.20266037594 -4.10565189081 0 -4.76341319269 0 -4.75773292498 4.76341319269 -90 -1.20266037594 0.657761301886 1.37078210108 151.325429992 -118.674570008 176.918927548 -0.000320277419919 -0.00109334193036 0.00113928776948 -106.327835051 1618.78385922
0.85257558082 0.026614630663 4.37268008754 -1.21812634926 -4.19957903714 0 -4.86804384816 0 -4.86234995642 4.86804384816 -90 -1.21812634926 0.668464811018 1.38948867022 151.244199659 -118.755800341 172.77153348 -0.000313763786431 -0.0010817008094 0.00112628890278 -106.176293521 1651.44611046
0.8530244054 0.027242564137 4.46521407366 -1.23264235246 -4.29170051184 0 -4.97044464488 0 -4.96473895192 4.97044464488 -90 -1.23264235246 0.678744133034 1.40716119335 151.161602246 -118.838397754 168.77133306 -0.000307075726055 -0.00106912635706 0.00111235287498 -106.025846215 1682.20989849
0.85348394336 0.02786257661 4.55575679874 -1.24623296171 -4.38198428156 0 -5.07059104833 0 -5.06487397901 5.07059104833 -90 -1.24623296171 0.688606766775 1.42382506916 151.077722793 -118.922277207 164.913924695 -0.000300243445849 -0.00105569055842 0.0010975567584 -105.876638145 1711.10104658
0.85395406425 0.028474525657 4.64428492956 -1.25892298465 -4.47039791018 0 -5.1684580112 0 -5.16273098313 5.1684580112 -90 -1.25892298465 0.698060101017 1.4395058296 150.992651041 -119.007348959 161.192373326 -0.000293290224816 -0.0010414449986 0.00108195605238 -105.728807187 1738.11982129
0.85443463022 0.029078259226 4.69722888592 -1.26475969461 -4.5237507832 0 -5.22663418312 0 -5.25828567311 5.22663418312 -90 -1.26475969461 0.702883399922 1.44694955905 150.937362111 -119.062637889 158.724696391 -0.000274196183673 -0.000980472512118 0.00101809174025 -105.620334663 1750.94491051
0.85039930935 0.018924065919 3.20469729024 -0.980179934003 -3.05111975914 0 -3.57074847316 0 -3.50229088165 3.57074847316 -90 -0.980179934003 0.519628714026 1.10939936108 152.070618226 -117.929381774 226.257993109 -0.000318455366009 -0.000991325396641 0.00104122038328 -107.809848935 1161.88593083
0.85072262977 0.019633573416 3.26021012679 -0.993013260168 -3.10529805835 0 -3.6324418866 0 -3.62702204528 3.6324418866 -90 -0.993013260168 0.527143828257 1.12425823973 152.038992194 -117.961007806 223.468107252 -0.000317499942994 -0.000992831085216 0.00104236351189 -107.734650332 1187.49247843
0.85105798477 0.020336362008 3.37075318115 -1.01819834767 -3.213289408 0 -3.75527194131 0 -3.74980949667 3.75527194131 -90 -1.01819834767 0.541982533302 1.15346159587 151.974518444 -118.025481556 217.941634579 -0.000315292039966 -0.000994981100269 0.00104374250131 -107.583250879 1237.97341548
0.85140527688 0.021032414302 3.47956479974 -1.04225107618 -3.3197984843 0 -3.87613651127 0 -3.87063745678 3.87613651127 -90 -1.04225107618 0.556338026961 1.18143983903 151.908046916 -118.091953084 212.56245733 -0.000312529169779 -0.000995440029012 0.00104334908075 -107.430990925 1286.61359049
0.85176440818 0.021721689098 3.58662812094 -1.06518913037 -3.42479925012 0 -3.99501632645 0 -3.98948689567 3.99501632645 -90 -1.06518913037 0.570217076322 1.20821201089 151.839627086 -118.160372914 207.334697308 -0.000309263366759 -0.000994312146532 0.00104129844679 -107.278120906 1333.37441055
0.8521352722 0.022404110773 3.69192399589 -1.08703088818 -3.52826325651 0 -4.11188970469 0 -4.10633380753 4.11188970469 -90 -1.08703088818 0.583626448183 1.23379776686 151.76931199 -118.23068801 202.260996986 -0.000305544238493 -0.000991698599652 0.00103770196689 -107.124878602 1378.2303218