TITLE = "Electromagnetic Field"
VARIABLES = X Y E ER EI EvR EvI EvR' EvI' Ev EvPhase EpR EpI Ep EpPhase EpToEvPhaseShift elConductivity Jr Ji J Jphase QJ
ZONE N=279, E=246, F=FEPOINT, ET=QUADRILATERAL
0.15092371191 0.020547408715 122.450385231 -122.413975263 2.98588401793 0 -312.17272075 0 -286.805424574 312.17272075 -90 -122.413975263 315.158604768 338.097807593 111.227176744 -158.772823256 3602.55283386 -10.7829975737 0.263015558898 10.7862047941 178.602736035 27008513.0368
0.15092371191 0.0232386435 132.698626585 -132.08408615 -7.72056269691 0 -331.527385551 0 -324.668180463 331.527385551 -90 -132.08408615 323.806822854 349.756268494 112.159950508 -157.840049492 3537.75830398 -11.4102214426 -0.650882169786 11.4624645084 3.00461811643 31245724.4342
0.15092371191 0.025929878286 154.726389358 -150.635604652 -33.0805380412 0 -370.295721235 0 -362.642550617 370.295721235 -90 -150.635604652 337.215183194 369.382217565 114.049891807 -155.950108193 3380.70829432 -12.4318043633 -2.701448396 12.7634193498 -167.967074308 40533913.8602
0.15092371191 0.028621113072 180.174981382 -166.776664657 -66.5486360453 0 -409.18892556 0 -400.74240833 409.18892556 -90 -166.776664657 342.640289515 381.124285698 115.944742877 -154.055257123 3152.23910541 -12.8302441076 -5.06661730954 13.8415812896 -158.606562453 51124623.9479
0.15092371191 0.031312347858 209.714600185 -178.794555654 -108.250327894 0 -448.220793957 0 -438.981874175 448.220793957 -90 -178.794555654 339.970466063 384.162244316 117.742070198 -152.257929802 2799.56749534 -12.213744409 -7.28886866178 14.2714843149 -149.164473423 61194923.9409
0.15092371191 0.034003582644 243.841302662 -185.14588354 -157.52473772 0 -487.405265735 0 -477.375291946 487.405265735 -90 -185.14588354 329.880528015 378.314964169 119.312985809 -150.687014191 2215.30480722 -10.0143974174 -8.29527381312 13.0438744396 -139.946728056 64591284.9407
0.15092371191 0.036694817429 282.645856085 -185.319358522 -212.483644719 0 -526.75636731 0 -515.937178644 526.75636731 -90 -185.319358522 314.272722591 364.85796162 120.538636991 -149.461363009 1270.39814572 -5.77653552907 -6.19712993819 8.48976541822 -131.388398738 47661658.3699
0.15092371191 0.039386052215 325.482381122 -181.342816183 -269.675152905 0 -566.288121201 0 -554.682138836 566.288121201 -90 -181.342816183 296.612968296 347.664052514 121.450846651 -148.549153349 488.68233311 -2.17962390299 -3.07911188854 3.77762007303 -124.13828309 24522234.4666
0.15092371191 0.042077287001 371.097604476 -175.929274188 -326.359752085 0 -606.014408389 0 -593.62472954 606.014408389 -90 -175.929274188 279.654656304 330.396027019 122.182284615 -147.817715385 234.012970851 -1.01014088412 -1.83303980185 2.09482244057 -118.481975062 15743722.8844
0.15092371191 0.044768521787 418.30895828 -170.066387355 -381.922854688 0 -645.948766515 0 -632.779257213 645.948766515 -90 -170.066387355 264.025911827 314.061420213 122.793705002 -147.206294998 160.656309197 -0.669771180533 -1.48461049768 1.62960228017 -114.112302342 13869033.2232
0.15092371191 0.047459756572 466.360055813 -163.946208491 -436.41604361 0 -686.104100479 0 -672.159480957 686.104100479 -90 -163.946208491 249.68805687 298.703594054 123.294627797 -146.705372203 122.853489189 -0.493582337707 -1.30137887305 1.39233046185 -110.668677138 13232243.3065
0.15092371191 0.050150991358 514.825214139 -157.628235667 -489.972412975 0 -726.492272885 0 -711.778187127 726.492272885 -90 -157.628235667 236.51985991 284.234053926 123.68554908 -146.31445092 97.4763218103 -0.376543460848 -1.16073792835 1.22057398632 -107.892312888 12810534.4228
0.15092371191 0.052842226144 563.471648207 -151.1475092 -542.725376351 0 -767.123530426 0 -751.646587336 767.123530426 -90 -151.1475092 224.398154075 270.555691967 123.965725973 -146.034274027 77.1649224054 -0.285935978338 -1.01795308732 1.05752172298 -105.607207193 12143361.4126
0.15092371191 0.05553346093 612.174090952 -144.551275413 -594.78967112 0 -808.00570575 0 -791.773475118 808.00570575 -90 -144.551275413 213.21603463 257.597008517 124.137020312 -145.862979688 58.3953724923 -0.207152277732 -0.843353974959 0.868522545413 -103.694549915 10820201.3727
0.15092371191 0.058224695716 660.865142883 -137.921691675 -646.255868405 0 -849.143112832 0 -832.164052648 849.143112832 -90 -137.921691675 202.887244427 245.327596544 124.207953165 -145.792046835 38.3761127109 -0.130281926897 -0.599719365499 0.613756104038 -102.07456422 8219750.45988
0.15092371191 0.060915930501 706.717599533 -131.771501162 -694.284723533 0 -888.156775735 0 -872.818307899 888.156775735 -90 -131.771501162 193.872052202 234.414390871 124.202865464 -145.797134536 17.5292843743 -0.0562525702758 -0.285557813948 0.291054080912 -100.765989643 4207267.0444
0.15092371191 0.063299251501 748.912322356 -126.34328727 -738.155309188 0 -924.308270002 0 -909.03554732 924.308270002 -90 -126.34328727 186.152960814 224.979016078 124.164617797 -145.835382203 3.54288357567 -0.00973039937648 -0.0547594983605 0.0556176729165 -99.7242937273 953719.571794
0.15092371191 0.065285352334 770.391436509 -123.67797323 -760.399056012 0 -942.783350617 0 -939.361835552 942.783350617 -90 -123.67797323 182.384294605 220.363953451 124.141880696 -145.858119304 0.528118846215 -0.00117861476882 -0.00724637972472 0.00734160417675 -99.2381907991 156720.050668
0.16000916436 0.020547408715 122.706247612 -122.550791651 5.59877103091 0 -318.029909523 0 -298.540301344 318.029909523 -90 -122.550791651 323.628680554 346.067146591 110.751487227 -159.248512773 3622.6767015 -10.855417715 0.497215731004 10.8692463285 177.386779153 27273751.6956
0.16000916436 0.0232386435 132.981757491 -132.467275627 -4.95840469466 0 -337.742725619 0 -337.937650813 337.742725619 -90 -132.467275627 332.784320924 358.239857665 111.68492484 -158.31507516 3560.96504557 -11.5191271979 -0.414217141266 11.5633078241 1.80416928395 31591028.1116
0.16000916436 0.025929878286 155.077672579 -151.584531469 -30.0735589964 0 -377.22663114 0 -377.445164946 377.22663114 -90 -151.584531469 347.153072143 378.870833835 113.57885491 -156.42114509 3411.34592355 -12.6248026235 -2.47491482577 12.9100613646 -169.130957648 41098993.2622
0.16000916436 0.028621113072 180.630814535 -168.425829871 -63.4383123828 0 -416.83382817 0 -417.076239092 416.83382817 -90 -168.425829871 353.395515788 391.544647693 115.484215768 -154.515784232 3193.91374903 -13.1307027836 -4.89146126455 14.0632848715 -159.721046588 52088491.2387
0.16000916436 0.031312347858 210.334755372 -181.235440026 -105.254977532 0 -456.577895621 0 -456.844432468 456.577895621 -90 -181.235440026 351.322918089 395.372650473 117.301005154 -152.698994846 2859.60545248 -12.6498828994 -7.2398994313 14.6276708193 -150.211781679 62941112.8574
0.16000916436 0.034003582644 244.72282712 -188.369128249 -154.960073122 0 -496.472582184 0 -496.763450814 496.472582184 -90 -188.369128249 341.512509062 390.059216271 118.901529546 -151.098470454 2306.91232029 -10.6159333169 -8.50807235965 13.6493455137 -140.898928317 67924846.5871
0.16000916436 0.036694817429 283.945757991 -189.108822671 -210.784461706 0 -536.531780788 0 -536.847112765 536.531780788 -90 -189.108822671 325.747319082 376.685316309 120.160580825 -149.839419175 1384.80675229 -6.4310420608 -6.7234887197 9.32595491989 -132.197416176 52776817.3331
0.16000916436 0.039386052215 327.422407172 -185.24353343 -269.298597768 0 -576.769484034 0 -577.109294574 576.769484034 -90 -185.24353343 307.470886265 358.977529281 121.089581418 -148.910418582 554.514064231 -2.53453655855 -3.46570408977 4.30002889542 -124.749274383 27999559.1653
0.16000916436 0.042077287001 373.899756809 -179.633835882 -327.495115715 0 -617.199714195 0 -617.563845324 617.199714195 -90 -179.633835882 289.70459848 340.88943511 121.821080017 -148.178919983 243.260782643 -1.07331657117 -1.90924491855 2.1924191612 -118.903499845 16591469.7382
0.16000916436 0.044768521787 422.119203727 -173.5419855 -384.517423531 0 -657.836418524 0 -658.224462462 657.836418524 -90 -173.5419855 273.318994992 323.769577762 122.431187705 -147.568812295 163.528577529 -0.696023213419 -1.52068236712 1.67340461364 -114.402138883 14370030.0926
0.16000916436 0.047459756572 471.247843756 -167.191307936 -440.401567462 0 -698.693317747 0 -699.104513099 698.693317747 -90 -167.191307936 258.291750285 307.689455516 122.931089771 -147.068910229 123.93461967 -0.507918492023 -1.32449940721 1.41908549557 -110.868546413 13628059.1899
0.16000916436 0.050150991358 520.817253931 -160.648781631 -495.285100033 0 -739.783690754 0 -740.216781707 739.783690754 -90 -160.648781631 244.498590721 292.560723102 123.321643481 -146.678356519 97.7526008327 -0.384901731197 -1.17641320957 1.23808760543 -108.030002017 13145886.1687
0.16000916436 0.052842226144 570.573061127 -153.952601184 -549.309579302 0 -781.120072775 0 -781.573117141 781.120072775 -90 -153.952601184 231.810493473 278.282092203 123.602285209 -146.397714791 76.9353087518 -0.290391275182 -1.02696512073 1.06741373168 -105.701279892 12410846.8361
0.16000916436 0.05553346093 620.38081708 -147.152906447 -602.599016286 0 -822.713835431 0 -823.183942362 822.713835431 -90 -147.152906447 220.114819146 264.777989712 123.775138062 -146.224861938 57.7275784731 -0.208463113433 -0.844254151891 0.869713676598 -103.757721225 10977539.6916
0.16000916436 0.058224695716 670.171754611 -140.33627939 -655.254160694 0 -864.574605603 0 -865.057575481 864.574605603 -90 -140.33627939 209.320444908 252.01549993 123.849250637 -146.150749363 37.1988977502 -0.128486488522 -0.58870034241 0.602607457198 -102.115886177 8176091.42546
0.16000916436 0.060915930501 717.059547634 -134.03176019 -704.380793185 0 -904.287615406 0 -907.199290994 904.287615406 -90 -134.03176019 199.906822221 240.685388025 123.849589495 -146.150410505 16.2539438241 -0.0531417281174 -0.268532312625 0.273747429996 -100.792954982 3996613.12859
0.16000916436 0.063299251501 760.213290225 -128.483475222 -749.253514562 0 -941.106059842 0 -944.744129653 941.106059842 -90 -128.483475222 191.85254528 230.905499503 123.81874716 -146.18125284 2.93705333035 -0.00816775628717 -0.0459057820214 0.0466270866682 -99.7420860867 810074.03098
0.16000916436 0.065285352334 795.738037563 -125.202411515 -785.815449517 0 -973.634399532 0 -976.190495453 973.634399532 -90 -125.202411515 187.818950014 225.728342243 123.693612173 -146.306387827 0.36476511299 -0.000811855078177 -0.00501556499883 0.0050808723907 -99.060424427 112512.60895
0.16000916436 0.066940436362 828.267806504 -123.857060444 -818.954814302 0 -1006.5273644 0 -1002.50291075 1006.5273644 -90 -123.857060444 187.572550098 224.775516843 123.437400803 -146.562599197 0.119484924135 -0.000222536107897 -0.00147143018141 0.00148816299446 -98.6001224011 40984.9754381
0.16909461681 0.020547408715 122.857312593 -122.353848757 10.800561099 0 -328.972354472 0 -308.808056512 328.972354472 -90 -122.353848757 339.772915571 361.143452927 109.813292383 -160.186707617 3660.75530227 -10.951678139 0.967888752736 10.9968434229 174.954358235 27627361.4096
0.16909461681 0.0232386435 133.154723562 -132.725881986 0.588089538859 0 -349.352111313 0 -349.540208721 349.352111313 -90 -132.725881986 349.940200852 374.326856765 110.747313548 -159.252686452 3604.96008566 -11.6849488854 0.0671984724943 11.7228434748 -0.599417300566 32072632.3381
0.16909461681 0.025929878286 155.315231588 -152.906015264 -23.9262614567 0 -390.167808692 0 -390.378636522 390.167808692 -90 -152.906015264 366.241547236 396.948399878 112.647539672 -157.352460328 3469.57545499 -12.952956747 -1.99981533468 13.1529873707 -171.466321306 41945002.502
0.16909461681 0.028621113072 180.990802386 -171.096882583 -56.9337104413 0 -431.102351935 0 -431.336246902 431.102351935 -90 -171.096882583 374.168641494 411.502310726 114.571849001 -155.428150999 3273.15730055 -13.6703140626 -4.49996708213 14.4455588127 -161.963783449 53630056.0072
0.16909461681 0.031312347858 210.917235185 -185.471121466 -98.7877174101 0 -472.168810231 0 -472.426166021 472.168810231 -90 -185.471121466 373.381092821 416.971722901 116.425217968 -153.574782032 2973.6263799 -13.4610155056 -7.07470726834 15.2634289324 -152.328196356 65907302.8326
0.16909461681 0.034003582644 245.697175411 -194.202588868 -149.119743218 0 -513.3804953 0 -513.661776333 513.3804953 -90 -194.202588868 364.260752082 412.843008493 118.083088405 -151.916911595 2481.06112989 -11.7659174968 -8.83380819597 14.7639342396 -142.836338134 73900834.1445
0.16909461681 0.036694817429 285.596389982 -196.184443154 -206.405055584 0 -554.751002084 0 -555.056763504 554.751002084 -90 -196.184443154 348.3459465 399.819378396 119.4102997 -150.5897003 1621.56948128 -7.79870727101 -7.77144562605 11.0394349222 -133.86505282 63178416.1949
0.16909461681 0.039386052215 330.177719156 -192.645862876 -267.35085622 0 -596.294261296 0 -596.625177955 596.294261296 -90 -192.645862876 328.943405076 381.220154919 120.376078148 -149.623921852 701.28984103 -3.33557221905 -4.30063045165 5.45121469905 -126.02476871 35575339.5379
0.16909461681 0.042077287001 378.216234991 -186.687790218 -328.436982318 0 -638.024609458 0 -638.381517276 638.024609458 -90 -186.687790218 309.58762714 361.532998196 121.109538875 -148.890461125 263.790060071 -1.21026077553 -2.0688083229 2.39947260898 -119.788784442 18329011.3565
0.16909461681 0.044768521787 428.307422678 -180.170085045 -388.252061134 0 -679.956883805 0 -680.340838811 679.956883805 -90 -180.170085045 291.704822671 342.870374542 121.718235116 -148.281764884 169.642142889 -0.749816639696 -1.59077161832 1.75980845173 -115.015448949 15321355.4242
0.16909461681 0.047459756572 479.457127209 -173.387206153 -446.79344404 0 -722.106552957 0 -722.518914738 722.106552957 -90 -173.387206153 275.313108917 325.370535234 122.217134417 -147.782865583 126.258741056 -0.536719623 -1.36799661536 1.47013045115 -111.296354281 14357918.777
0.16909461681 0.050150991358 531.106363452 -166.422287907 -504.206935857 0 -764.489898073 0 -764.932447436 764.489898073 -90 -166.422287907 260.282962215 308.946562444 122.607896804 -147.392103196 98.4320327585 -0.40157926853 -1.20537448523 1.27085334363 -108.329755526 13755757.5074
0.16909461681 0.052842226144 582.955111227 -159.320135569 -560.650481009 0 -807.124265733 0 -807.599369425 807.124265733 -90 -159.320135569 246.473784724 293.488943158 122.890343513 -147.109656487 76.6038490927 -0.299291111617 -1.04320550264 1.08548771911 -105.911183031 12890269.3774
0.16909461681 0.05553346093 634.84948607 -152.136724516 -616.26690109 0 -850.028421567 0 -850.539262278 850.028421567 -90 -152.136724516 233.761520476 278.913898355 123.067112766 -146.932887234 56.5263328351 -0.211122497486 -0.844934417571 0.871021490096 -103.903812733 11244310.8037
0.16909461681 0.058224695716 686.717669867 -144.967429468 -671.177657187 0 -893.22304555 0 -893.773941375 893.22304555 -90 -144.967429468 222.045388363 265.183383211 123.148265203 -146.851734797 35.0002773174 -0.12501320811 -0.566516689215 0.580194667957 -102.21661391 8054819.79509
0.16909461681 0.060915930501 735.562108456 -138.372480737 -722.385948544 0 -934.228764241 0 -937.328271317 934.228764241 -90 -138.372480737 211.842815698 253.03464347 123.159868236 -146.840131764 13.9721473662 -0.0474403548515 -0.237137696534 0.241841828714 -100.863559387 3597392.31241
0.16909461681 0.063299251501 780.530474187 -132.597558438 -769.159909025 0 -972.284355264 0 -976.189485031 972.284355264 -90 -132.597558438 203.124446239 242.576991247 123.143714188 -146.856285812 1.9401418702 -0.00555590442965 -0.031091920881 0.031584706598 -99.7930315596 565396.524946
0.16909461681 0.065285352334 819.331530923 -127.925555744 -809.268868607 0 -1005.36140287 0 -1008.79975962 1005.36140287 -90 -127.925555744 196.092534263 234.13450244 123.126787252 -146.873212748 0.249460660842 -0.000560868859781 -0.00347331191586 0.0035183405902 -98.9895311673 81747.8546858
0.16909461681 0.066940436362 838.41076293 -125.709724414 -828.932783712 0 -1021.69017191 0 -1036.14424728 1021.69017191 -90 -125.709724414 192.7573882 230.130367408 123.118427212 -146.881572788 0.109240220458 -0.000206213640203 -0.00136012228689 0.00137566602126 -98.6230630707 38312.755203
0.17818006925 0.020547408715 122.369242805 -121.310783475 15.8579821811 0 -338.406893855 0 -317.659290323 338.406893855 -90 -121.310783475 354.264876036 374.470564812 108.910043475 -161.089956525 3694.38612527 -10.9579436842 1.43342548398 11.0536811374 172.548689144 27659832.8297
0.17818006925 0.0232386435 132.630201766 -132.061876463 6.06597431207 0 -359.357383851 0 -359.534362246 359.357383851 -90 -132.061876463 365.423358163 388.617439027 109.843187713 -160.156812287 3644.02649568 -11.7532979432 0.553756244154 11.8045825909 -2.98021070963 32173198.3047
0.17818006925 0.025929878286 154.72665619 -153.158857705 -17.6608501747 0 -401.311182145 0 -401.509367015 401.311182145 -90 -153.158857705 383.65033197 413.163620849 111.746331432 -158.253668568 3521.69125677 -13.1701257537 -1.49434528412 13.3022682237 -173.78775491 42268640.7691
0.17818006925 0.028621113072 180.368203404 -172.578096062 -50.0497193305 0 -443.376641281 0 -443.596335555 443.376641281 -90 -172.578096062 393.32692195 429.595877025 113.685231647 -156.314768353 3344.33324226 -14.089197722 -4.04225516416 14.7131630007 -164.203595002 54453581.2039
0.17818006925 0.031312347858 210.324354606 -188.446854099 -91.5987267512 0 -485.565911079 0 -485.807502097 485.565911079 -90 -188.446854099 393.967184328 436.785245439 115.569892587 -154.430107413 3075.82951976 -14.1469694289 -6.79238725421 15.7528712781 -154.455766701 67873499.432
0.17818006925 0.034003582644 245.257076564 -198.794582876 -142.131861694 0 -527.891371906 0 -528.155361309 527.891371906 -90 -198.794582876 385.759510211 434.021774708 117.279959462 -152.720040538 2636.62428762 -12.7956683839 -8.97118069068 15.6835794611 -144.804486853 78481947.133
0.17818006925 0.036694817429 285.536580316 -202.178407986 -200.373841224 0 -570.365700613 0 -570.652746543 570.365700613 -90 -202.178407986 369.991859389 421.659580274 118.67505679 -151.32494321 1860.66326612 -9.2081613377 -8.73018684821 12.7267007304 -135.593493138 73199842.9067
0.17818006925 0.039386052215 330.887784295 -199.176452793 -263.30361384 0 -613.001961703 0 -613.312938369 613.001961703 -90 -199.176452793 349.698347863 402.460077545 119.68400831 -150.31599169 868.261897531 -4.2689942273 -5.19698285742 6.73693313827 -127.378330594 43884575.9766
0.17818006925 0.042077287001 380.158241143 -193.002206664 -326.956820137 0 -655.813734477 0 -656.149815651 655.813734477 -90 -193.002206664 328.85691434 381.322138144 120.425676222 -149.574323778 291.834768938 -1.3852876548 -2.26769833402 2.66063777149 -120.744455326 20373099.1886
0.17818006925 0.044768521787 431.814936715 -186.138399164 -389.278367069 0 -698.815290552 0 -699.178066732 698.815290552 -90 -186.138399164 309.536923484 361.203583581 121.036051932 -148.963948068 177.208373726 -0.809474271193 -1.66354565048 1.85141553132 -115.687876757 16236265.597
0.17818006925 0.047459756572 484.692204373 -178.987359027 -450.194000672 0 -742.021842372 0 -742.413484596 742.021842372 -90 -178.987359027 291.8278417 342.353097523 121.536066782 -148.463933218 129.158139219 -0.566898007 -1.40900825835 1.51947130865 -111.775265809 14995075.1051
0.17818006925 0.050150991358 538.129069095 -171.655783592 -509.849487919 0 -785.449890877 0 -785.873379838 785.449890877 -90 -171.655783592 275.600402958 324.693232652 121.928685921 -148.071314079 99.4593507341 -0.41860674869 -1.23098987823 1.30060109773 -108.675180716 14259339.2625
0.17818006925 0.052842226144 591.770936617 -164.197911931 -568.413219495 0 -829.117712288 0 -829.577158304 829.117712288 -90 -164.197911931 260.704492792 308.109198733 122.214323518 -147.785676482 76.5575726438 -0.308334857711 -1.05654908734 1.10083716165 -106.162990631 13265790.8311
0.17818006925 0.05553346093 645.436221392 -156.676736283 -626.040322661 0 -873.046039173 0 -873.547129721 873.046039173 -90 -156.676736283 247.005716513 292.510316031 122.396197474 -147.603802526 55.60036179 -0.213940443969 -0.843763803003 0.870580950787 -104.089085951 11420018.0379
0.17818006925 0.058224695716 699.040825542 -149.196767476 -682.864678457 0 -917.259013485 0 -917.809639799 917.259013485 -90 -149.196767476 234.394335028 277.853937621 122.485327511 -147.514672489 33.1267345247 -0.121899216386 -0.544694324387 0.558216108275 -102.354473352 7877462.59142
0.17818006925 0.060915930501 749.487927415 -142.346605781 -735.799498935 0 -959.224406993 0 -962.396656711 959.224406993 -90 -142.346605781 223.424908058 264.921432117 122.508587069 -147.491412931 12.1948852053 -0.0427849870324 -0.211071437652 0.21536811993 -100.969738771 3247633.2708
0.17818006925 0.063299251501 795.906466609 -136.370959801 -784.109700366 0 -998.169878031 0 -1002.18499661 998.169878031 -90 -136.370959801 214.060177665 253.812253798 122.506546032 -147.493453968 1.31471683486 -0.00386109313605 -0.0214470508461 0.0217920806311 -99.8782263222 399663.411955
0.17818006925 0.065285352334 835.944211405 -131.542756486 -825.514434793 0 -1032.02531548 0 -1035.58486801 1032.02531548 -90 -131.542756486 206.51088069 244.8507796 122.502640761 -147.497359239 0.204554908501 -0.000472752587816 -0.00290487061213 0.0029431201416 -99.0607019919 69848.2714077
0.17818006925 0.066940436362 855.628818814 -129.25286535 -845.80965756 0 -1048.74073957 0 -1063.60557037 1048.74073957 -90 -129.25286535 202.931082008 240.60112456 122.500631458 -147.499368542 0.0912277988138 -0.000177112851915 -0.001159483892 0.00117293333021 -98.6881209569 33349.2267528
0.1872655217 0.020547408715 121.410447435 -119.627295011 20.5925747779 0 -346.420779073 0 -325.176072748 346.420779073 -90 -119.627295011 367.013353851 386.027374136 108.058951935 -161.941048065 3723.12800234 -10.8899023647 1.8753591454 11.0523581537 170.227492838 27440081.7365
0.1872655217 0.0232386435 131.592128025 -130.680603695 11.2634483437 0 -367.852309765 0 -368.014866658 367.852309765 -90 -130.680603695 379.115758108 401.069656432 108.989988614 -161.010011386 3677.62964744 -11.7384613843 1.02416212551 11.8214689471 84.7201616345 31970903.0482
0.1872655217 0.025929878286 153.529511781 -152.539475376 -11.5610560534 0 -410.763832798 0 -410.94528798 410.763832798 -90 -152.539475376 399.202776744 427.426154043 110.893039032 -159.106960968 3566.98109316 -13.2865177882 -0.98528897462 13.3712185085 -86.0356432352 42166662.2915
0.1872655217 0.028621113072 179.019795072 -173.038396066 -43.1508870368 0 -453.77760706 0 -453.977991299 453.77760706 -90 -173.038396066 410.626720023 445.67296788 112.842274558 -157.157725442 3406.60388623 -14.3907256564 -3.54971646142 14.878921943 -166.379737543 54671557.1621
0.1872655217 0.031312347858 208.858367757 -190.281688355 -84.1379846251 0 -496.904299089 0 -497.123654971 496.904299089 -90 -190.281688355 412.766314464 454.585337408 114.752529632 -155.247470368 3165.18924303 -14.7000796897 -6.4260137232 16.105545611 -156.532664217 68947665.4836
0.1872655217 0.034003582644 243.756412666 -202.190128255 -134.528971247 0 -540.154600201 0 -540.392988655 540.154600201 -90 -202.190128255 405.625628954 453.281568059 116.508150157 -153.491849843 2772.95313339 -13.6849444661 -8.94983331522 16.4125309387 -146.740474124 81729096.0908
0.1872655217 0.036694817429 284.1762504 -207.039457885 -193.294625709 0 -583.53923541 0 -583.796745446 583.53923541 -90 -207.039457885 390.244609702 441.80014182 117.966936709 -152.033063291 2079.79703859 -10.528870102 -9.47861843341 14.212523041 -137.318057034 81689941.5195
0.1872655217 0.039386052215 330.00307382 -204.788902488 -257.731697445 0 -627.068978139 0 -627.345741308 627.068978139 -90 -204.788902488 369.337280694 422.331323445 119.025837213 -150.974162787 1041.3669829 -5.25949852493 -6.07588554831 8.0510185625 -128.764195174 52263140.667
0.1872655217 0.042077287001 380.183599439 -198.595805134 -323.550435377 0 -670.754673828 0 -671.050884984 670.754673828 -90 -198.595805134 347.204238451 400.001489161 119.78517899 -150.21482101 336.58372723 -1.64580605068 -2.57049805857 3.05638780879 -121.749792277 23312158.2995
0.1872655217 0.044768521787 433.088029028 -191.472225346 -388.062075246 0 -714.607276177 0 -714.923223318 714.607276177 -90 -191.472225346 326.54520093 378.550920576 120.399942023 -149.600057977 187.575093873 -0.881739207342 -1.7519216328 1.96291861831 -116.405680949 17244804.6613
0.1872655217 0.047459756572 487.383125013 -184.013923132 -451.045760718 0 -758.637901755 0 -758.974008092 758.637901755 -90 -184.013923132 307.592141037 358.440527594 120.902227732 -149.097772268 133.087734114 -0.600694249228 -1.4533356266 1.57337360745 -112.294805751 15604941.8719
0.1872655217 0.050150991358 542.293871433 -176.365587866 -512.630307239 0 -802.857910374 0 -803.214793356 802.857910374 -90 -176.365587866 290.227603136 339.619070271 121.297242424 -148.702757576 101.021998237 -0.436931586823 -1.25648242056 1.33070926351 -109.057767532 14697432.6908
0.1872655217 0.052842226144 597.398575182 -168.595970593 -572.982691535 0 -847.279022046 0 -847.657574998 847.279022046 -90 -168.595970593 274.296330511 321.972623444 121.586335365 -148.413664635 76.8778420005 -0.317984401192 -1.06901788634 1.11554370904 -106.449669255 13566485.0489
0.1872655217 0.05553346093 652.47431448 -160.777034984 -632.257680104 0 -891.913484838 0 -892.314989134 891.913484838 -90 -160.777034984 259.655804734 305.406368334 121.773410671 -148.226589329 54.9886212735 -0.217199404472 -0.842264848366 0.869943091046 -104.307819482 11530362.5098
0.1872655217 0.058224695716 707.408148764 -153.022863007 -690.585679568 0 -936.774313696 0 -937.200590787 936.774313696 -90 -153.022863007 246.188634128 289.874243991 121.870391675 -148.129608325 31.6133596932 -0.119429699493 -0.524911527805 0.538374544626 -102.525030366 7677961.76432
0.1872655217 0.060915930501 759.013235485 -145.947478205 -744.799824855 0 -979.285165165 0 -982.329241281 979.285165165 -90 -145.947478205 234.48534031 276.199175316 121.904684788 -148.095315212 10.8480561783 -0.0391414060862 -0.190201221111 0.194190003506 -101.108302462 2955297.07661
0.1872655217 0.063299251501 806.400646795 -139.793111034 -794.163026772 0 -1018.66425649 0 -1022.51084602 1018.66425649 -90 -139.793111034 224.501229723 264.470460075 121.915438166 -148.084561834 0.942726036029 -0.00283006011102 -0.01555149149 0.0158071172494 -99.9957693249 295084.199855
0.1872655217 0.065285352334 847.184612175 -134.823923516 -836.371533383 0 -1052.82712064 0 -1056.16059534 1052.82712064 -90 -134.823923516 216.455587259 255.013804732 121.923005077 -148.076994923 0.171919691687 -0.000407201282919 -0.00247354394547 0.00250686595629 -99.1645079878 60336.2750359
0.1872655217 0.066940436362 867.209857784 -132.467128828 -857.032486235 0 -1069.67352596 0 -1084.32336155 1069.67352596 -90 -132.467128828 212.641039724 250.529837777 121.926594001 -148.073405999 0.077420990654 -0.000154079051172 -0.000997359360889 0.00100919126612 -98.7860958718 29089.5293587
0.19635097415 0.020547408715 120.146460562 -117.523246385 24.871738979 0 -353.123913586 0 -331.462576796 353.123913586 -90 -117.523246385 377.995652565 395.852342938 107.275309842 -162.724690158 3746.58887103 -10.7658018209 2.2789660487 11.0062218509 168.04464312 27041355.4202
0.19635097415 0.0232386435 130.223002558 -128.808489164 16.0171845738 0 -374.955675546 0 -375.103494822 374.955675546 -90 -128.808489164 390.97286012 411.707484337 108.20348558 -161.79651442 3705.15562027 -11.6576791599 1.4607301499 11.7871296981 172.555947395 31549622.1495
0.19635097415 0.025929878286 151.943660921 -151.281522837 -5.8575322784 0 -418.663217997 0 -418.827549362 418.663217997 -90 -151.281522837 412.805685718 439.725628103 110.104383996 -159.895616004 3604.32081636 -13.3158276209 -0.496189763828 13.3734614526 1.84457726726 41744615.9523
0.19635097415 0.028621113072 177.210144603 -172.705158657 -36.5452366214 0 -462.463407197 0 -462.643965646 462.463407197 -90 -172.705158657 425.918170576 459.678738581 112.060613204 -157.939386796 3458.22878688 -14.5816467351 -3.05090680855 14.9550020481 -168.438405222 54409284.4284
0.19635097415 0.031312347858 206.836427148 -191.180529147 -76.7960673817 0 -506.365367859 0 -506.561781873 506.365367859 -90 -191.180529147 429.569300478 470.264979036 113.991551663 -156.008448337 3239.32323228 -15.1160586494 -6.00669322482 16.3298299626 -158.507313873 69262615.3263
0.19635097415 0.034003582644 241.572076133 -204.555110808 -126.781199326 0 -550.378005414 0 -550.589789081 550.378005414 -90 -204.555110808 423.596806088 470.460987317 115.786521074 -154.213478926 2887.22690863 -14.4144248805 -8.79807239848 16.9517445481 -148.596738791 83743311.6808
0.19635097415 0.036694817429 281.956028753 -210.882560776 -185.702367083 0 -594.509936226 0 -594.736451353 594.509936226 -90 -210.882560776 408.807569142 460.033216577 117.304205517 -152.695794483 2266.5047384 -11.6787825494 -9.97450011683 15.4107438427 -138.996980018 88147789.2476
0.19635097415 0.039386052215 328.016714198 -209.59737255 -251.168313246 0 -638.769394936 0 -639.009799644 638.769394936 -90 -209.59737255 387.60108169 440.661223089 118.419942856 -151.580057144 1219.6499043 -6.29459763028 -6.94622201565 9.39377006348 -130.157327525 60770263.4155
0.19635097415 0.042077287001 378.820255606 -203.588854146 -318.743824758 0 -683.164110939 0 -683.41728935 683.164110939 -90 -203.588854146 364.420286182 417.445382012 119.205560099 -150.794439901 408.35774658 -2.04962158373 -3.04344346415 3.67460403421 -122.792326167 27773437.3392
0.19635097415 0.044768521787 432.691013141 -196.255796626 -385.177036937 0 -727.701142259 0 -727.965608527 727.701142259 -90 -196.255796626 342.524105322 394.773706407 119.824523762 -150.175476238 201.026393667 -0.968984382093 -1.8591723798 2.09844033228 -117.154822014 18392186.5146
0.19635097415 0.047459756572 488.145716931 -188.524683103 -449.980682433 0 -772.386651233 0 -772.660417903 772.386651233 -90 -188.524683103 322.4059688 373.486849132 120.328112774 -149.671887226 138.052793889 -0.638524749342 -1.50248802322 1.6334354342 -112.839847393 16216210.3658