TITLE = "Electromagnetic Field"
VARIABLES = X Y E ER EI EvR EvI EvR' EvI' Ev EvPhase EpR EpI Ep EpPhase EpToEvPhaseShift elConductivity Jr Ji J Jphase QJ
ZONE N=306, E=268, F=FEPOINT, ET=QUADRILATERAL
0.22360733149 0.075269989823 1092.39314631 -122.067288467 -1085.55164004 0 -1295.70917828 0 -1290.31301217 1295.70917828 -90 -122.067288467 210.157538236 243.036239666 120.149607948 -149.850392052 2.44136109622e-50 -3.32746934233e-54 -2.95913823197e-53 2.977787702e-53 -96.4158017071 1.45666591263e-44
0.22360733149 0.075392885381 1094.0727931 -121.916188572 -1087.25876763 0 -1297.14385656 0 -1292.5735578 1297.14385656 -90 -121.916188572 209.885088929 242.724756918 120.151068627 -149.848931373 1.07956083803e-50 -1.47161993677e-54 -1.30872524412e-53 1.31697320298e-53 -96.3979700174 6.4413436709e-45
0.22360733149 0.075548074442 1097.48720732 -121.609849997 -1090.72868863 0 -1300.06144508 0 -1295.43032233 1300.06144508 -90 -121.609849997 209.332756449 242.093284884 120.15403592 -149.84596408 5.08583363783e-54 -8.73393896285e-58 -7.8063495158e-57 7.85505631189e-57 -96.3619023675 3.05126621286e-48
0.22360733149 0.075740595209 1101.69774314 -121.233958999 -1095.00686417 0 -1303.6619501 0 -1298.97778063 1303.6619501 -90 -121.233958999 208.655085926 241.318498603 120.157690409 -149.842309591 2.18303027859e-58 -4.63783424135e-62 -4.17138454085e-61 4.19708756785e-61 -96.3178361344 1.31873459531e-52
0.22360733149 0.075974237547 1106.77448458 -120.783479157 -1100.16399295 0 -1308.00703315 0 -1303.28823467 1308.00703315 -90 -120.783479157 207.843040201 240.390054489 120.162089647 -149.837910353 6.0759828857e-64 -1.56125226296e-67 -1.41504702364e-66 1.42363378907e-66 -96.2652989876 3.70129576192e-58
0.22360733149 0.076250340873 1112.73434589 -120.258438608 -1106.21663064 0 -1313.113354 0 -1308.38967437 1313.113354 -90 -120.258438608 206.896723366 239.308057386 120.167243973 -149.832756027 1.32913799623e-70 -4.01966204281e-74 -3.67671198936e-73 3.69861972661e-73 -96.204437348 8.17792029473e-65
0.22360733149 0.076566547332 1119.51856621 -119.665740541 -1113.10441371 0 -1318.93305128 0 -1314.24250351 1318.93305128 -90 -119.665740541 205.828637572 238.086786006 120.173097402 -149.826902598 2.29977666228e-77 -7.92808508751e-81 -7.32883400415e-80 7.37159095392e-80 -96.1362063467 1.43143682198e-71
0.22360733149 0.076915933327 1126.97906098 -119.020020191 -1120.67634487 0 -1325.34156006 0 -1320.72281215 1325.34156006 -90 -119.020020191 204.66521519 236.756448081 120.17951673 -149.82048327 4.80500451912e-84 -1.82066924759e-87 -1.70309422099e-86 1.71279838005e-86 -96.0624346083 3.02959219499e-78
0.22360733149 0.077287019364 1134.88157633 -118.342913933 -1128.69417698 0 -1332.13966257 0 -1327.62147702 1332.13966257 -90 -118.342913933 203.44548559 235.361660196 120.18629563 -149.81370437 3.51858655539e-89 -1.40804988583e-92 -1.33402923022e-91 1.34143953789e-91 -95.985699005 2.24953464272e-83
0.22360733149 0.077664969066 1142.92948652 -117.660563362 -1136.85672704 0 -1339.0732901 0 -1334.66516791 1339.0732901 -90 -117.660563362 202.216563059 233.956292385 120.193176623 -149.806823377 1.98462615579e-92 -8.03762004094e-96 -7.71768814958e-95 7.75942945279e-95 -95.9090047863 1.28745752732e-86
0.22360733149 0.078033822604 1150.80463015 -116.999860612 -1144.84138905 0 -1345.86826398 0 -1341.55694023 1345.86826398 -90 -116.999860612 201.026874927 232.595726544 120.199887185 -149.800112815 3.79823573829e-94 -1.48186265042e-97 -1.4431700144e-96 1.45075813683e-96 -95.8353450402 2.5024349907e-88
0.22360733149 0.078379102643 1158.2143819 -116.384488122 -1152.35184428 0 -1352.27087553 0 -1348.02460647 1352.27087553 -90 -116.384488122 199.919031247 231.328701807 120.206180174 -149.793819826 4.96399299429e-95 -1.80134669034e-98 -1.77545733267e-97 1.78457208352e-97 -95.7672663226 3.31337187378e-89
0.22360733149 0.078689931403 1164.9313508 -115.831890481 -1159.15818287 0 -1358.08256672 0 -1353.86094455 1358.08256672 -90 -115.831890481 198.924383853 230.191089009 120.211866846 -149.788133154 8.49935159249e-96 -2.61133757619e-99 -2.61232229977e-98 2.62534193984e-98 -95.7065627443 5.76713313519e-90
0.22360733149 0.078960057578 1170.8154024 -115.351893879 -1165.11905288 0 -1363.17961029 0 -1358.94414424 1363.17961029 -90 -115.351893879 198.060557414 229.203062606 120.216834109 -149.783165891 8.5012665865e-96 -2.23399152849e-99 -2.25564584949e-98 2.26668177283e-98 -95.654163255 5.8268389102e-90
0.22360733149 0.079187714856 1175.81510399 -114.9470218 -1170.18296738 0 -1367.51500052 0 -1363.23642845 1367.51500052 -90 -114.9470218 197.332033142 228.369764159 120.22104422 -149.77895578 8.50273595864e-96 -1.85884386356e-99 -1.8916917536e-98 1.90080275457e-98 -95.6102015917 5.87771464628e-90
0.22360733149 0.079374668832 1178.30674078 -114.746052776 -1172.70632246 0 -1369.67676125 0 -1366.76707151 1369.67676125 -90 -114.746052776 196.97043879 227.956158909 120.223139488 -149.776860512 8.50346702963e-96 -1.65735312947e-99 -1.69381730044e-98 1.70190635501e-98 -95.5884432817 5.90313561905e-90
0.23269278394 0.075269989823 1091.2233962 -122.528371177 -1084.32234286 0 -1296.42051769 0 -1296.31751435 1296.42051769 -90 -122.528371177 212.098174831 244.947268097 120.015918541 -149.984081459 2.41209020974e-50 -3.29984179593e-54 -2.92038879019e-53 2.9389730898e-53 -96.447105765 1.43615953429e-44
0.23269278394 0.075392885381 1092.88845891 -122.376517628 -1086.01506605 0 -1297.8372389 0 -1298.57116188 1297.8372389 -90 -122.376517628 211.822172849 244.632316802 120.017458589 -149.982541411 1.06668382827e-50 -1.45951627047e-54 -1.29168946318e-53 1.29990924737e-53 -96.4292524084 6.35106181199e-45
0.23269278394 0.075548074442 1096.2727249 -122.068650674 -1089.4551997 0 -1300.71783945 0 -1301.41887807 1300.71783945 -90 -122.068650674 211.262639743 243.993814302 120.020587054 -149.979412946 5.55651732437e-54 -9.58133661171e-58 -8.51816354855e-57 8.57188147846e-57 -96.3931430392 3.32576809753e-48
0.23269278394 0.075740595209 1100.44491965 -121.69088332 -1093.6954692 0 -1304.2716076 0 -1304.95457755 1304.2716076 -90 -121.69088332 210.576138404 243.210405083 120.024439896 -149.975560104 2.78328336035e-58 -5.94017787337e-62 -5.31073837567e-61 5.34385696995e-61 -96.3490306761 1.67677075353e-52
0.23269278394 0.075974237547 1105.47368949 -121.23815342 -1098.80513644 0 -1308.55865284 0 -1309.24994793 1308.55865284 -90 -121.23815342 209.753516405 242.271632501 120.0290777 -149.9709223 9.69482100926e-64 -2.50401687311e-67 -2.25408506693e-66 2.2679510148e-66 -96.2964456793 5.88710508227e-58
0.23269278394 0.076250340873 1111.3747437 -120.710488554 -1104.79954598 0 -1313.59442833 0 -1314.33237952 1313.59442833 -90 -120.710488554 208.794882346 241.17760518 120.034511253 -149.965488747 2.81117866271e-70 -8.55058818691e-74 -7.76149566383e-73 7.8084539783e-73 -96.2355386503 1.72335873057e-64
0.23269278394 0.076566547332 1118.08865476 -120.114825688 -1111.61765327 0 -1319.33055796 0 -1320.16181035 1319.33055796 -90 -120.114825688 207.712904687 239.942763591 120.040681416 -149.959318584 6.22715866105e-77 -2.15985521636e-80 -1.98022434292e-79 1.99196859869e-79 -96.1672700857 3.86020920219e-71
0.23269278394 0.076915933327 1125.46755426 -119.465872618 -1119.10865503 0 -1325.64301817 0 -1326.61416145 1325.64301817 -90 -119.465872618 206.534363138 238.597654126 120.047447662 -149.952552338 1.40135029496e-83 -5.34286451414e-87 -4.95574481047e-86 4.98446313975e-86 -96.0934743037 8.79743433843e-78
0.23269278394 0.077287019364 1133.27857174 -118.785373619 -1127.03566015 0 -1332.33445728 0 -1333.48060579 1332.33445728 -90 -118.785373619 205.298797128 237.187391235 120.054592426 -149.945407574 8.87280678022e-89 -3.57197611979e-92 -3.35628329989e-91 3.37523774892e-91 -96.0167328992 5.64766537838e-83
0.23269278394 0.077664969066 1141.22772513 -118.099601167 -1135.10010099 0 -1339.15403516 0 -1340.48867764 1339.15403516 -90 -118.099601167 204.053934171 235.76644399 120.061844298 -149.938155702 3.87290057203e-92 -1.57737115669e-95 -1.5027761455e-94 1.51103200151e-94 -95.9400535494 2.50146553788e-86
0.23269278394 0.078033822604 1149.00055436 -117.435582488 -1142.98304811 0 -1345.83187764 0 -1347.3428281 1345.83187764 -90 -117.435582488 202.848829526 234.390808123 120.068916086 -149.931083914 5.82163018134e-94 -2.28500809583e-97 -2.20908815835e-96 2.22087484809e-96 -95.866428677 3.81892153735e-88
0.23269278394 0.078379102643 1156.30868995 -116.817119375 -1150.39242091 0 -1352.11906438 0 -1353.7725937 1352.11906438 -90 -116.817119375 201.726643471 233.109761045 120.075547416 -149.924452584 7.32296632529e-95 -2.64501846393e-98 -2.59103077603e-97 2.60449691738e-97 -95.7984011943 4.87240836968e-89
0.23269278394 0.078689931403 1162.92887559 -116.261744674 -1157.10243498 0 -1357.82156552 0 -1359.57249283 1357.82156552 -90 -116.261744674 200.719130537 231.959567902 120.081539499 -149.918460501 1.83848519846e-95 -5.87388992131e-99 -5.81341123302e-98 5.84301225849e-98 -95.7377595768 1.23779787479e-89
0.23269278394 0.078960057578 1168.72435565 -115.779334608 -1162.97511594 0 -1362.81925552 0 -1364.62216637 1362.81925552 -90 -115.779334608 199.844139588 230.960623044 120.086773288 -149.913226712 9.06210418027e-96 -2.39073965964e-99 -2.39976020057e-98 2.41164012636e-98 -95.6854265669 6.18772366007e-90
0.23269278394 0.079187714856 1173.64591893 -115.372425931 -1167.96120305 0 -1367.0674091 0 -1368.88480451 1367.0674091 -90 -115.372425931 199.106206043 230.118121666 120.091209123 -149.908790877 9.06379023949e-96 -1.98928652207e-99 -2.01245420836e-98 2.02226265277e-98 -95.6415304072 6.24105237062e-90
0.23269278394 0.079374668832 1176.09782391 -115.170445762 -1170.4449775 0 -1369.18492077 0 -1372.39012142 1369.18492077 -90 -115.170445762 198.739943273 229.699950102 120.09341668 -149.90658332 9.06462383353e-96 -1.77366321487e-99 -1.80189760094e-98 1.81060618443e-98 -95.6198071801 6.2676857354e-90
0.24177823638 0.075269989823 1087.17346559 -123.275792807 -1080.16148914 0 -1295.6432493 0 -1294.60783136 1295.6432493 -90 -123.275792807 215.481760163 248.252953814 119.774215326 -150.225784674 2.36191486824e-50 -3.25099170508e-54 -2.84869600598e-53 2.86718695795e-53 -96.5109219127 1.39590333958e-44
0.24177823638 0.075392885381 1088.80019676 -123.12265059 -1081.81616187 0 -1297.01561321 0 -1296.77734139 1297.01561321 -90 -123.12265059 215.199451332 247.931864026 119.775894254 -150.224105746 1.0446366432e-50 -1.43815527652e-54 -1.26019562565e-53 1.26837551192e-53 -96.4930634836 6.17387777598e-45
0.24177823638 0.075548074442 1092.10539925 -122.812170293 -1085.17779523 0 -1299.80493093 0 -1299.51688628 1299.80493093 -90 -122.812170293 214.627135702 247.280919608 119.779304715 -150.220695285 6.57316566986e-54 -1.1402080368e-57 -1.00362353063e-56 1.01007982948e-56 -96.4569485577 3.90371327844e-48
0.24177823638 0.075740595209 1096.17744706 -122.431194657 -1089.3185937 0 -1303.24355234 0 -1302.91534928 1303.24355234 -90 -122.431194657 213.92495864 246.482250979 119.783504569 -150.216495431 4.26957333851e-58 -9.16472934678e-62 -8.1118542087e-61 8.16346262262e-61 -96.4128402179 2.55086842329e-52
0.24177823638 0.075974237547 1101.08150441 -121.974617595 -1094.3043365 0 -1307.38790007 0 -1307.03953317 1307.38790007 -90 -121.974617595 213.08356357 245.525201896 119.788559681 -150.211440319 2.07610145712e-63 -5.3917616496e-67 -4.80480496076e-66 4.83496310965e-66 -96.3602759784 1.24943708691e-57
0.24177823638 0.076250340873 1106.83049743 -121.442465802 -1100.14757304 0 -1312.25064072 0 -1311.91292145 1312.25064072 -90 -121.442465802 212.103067674 244.409888276 119.794481591 -150.205518409 8.75806185628e-70 -2.67791739512e-73 -2.40606192659e-72 2.42091879852e-72 -96.2994154133 5.31726856577e-64
0.24177823638 0.076566547332 1113.36368259 -120.841734079 -1106.78591784 0 -1317.78235309 0 -1317.49365818 1317.78235309 -90 -120.841734079 210.996435252 243.151037491 119.801205608 -150.198794392 2.64602124289e-76 -9.22450862036e-80 -8.36990712547e-79 8.42058640287e-79 -96.2312286647 1.62341302603e-70
0.24177823638 0.076915933327 1120.53417039 -120.18725439 -1114.06950992 0 -1323.86057302 0 -1323.65923128 1323.86057302 -90 -120.18725439 209.7910631 241.779795783 119.808578367 -150.191421633 6.63623873999e-83 -2.54302163445e-86 -2.33391974135e-85 2.3477333764e-85 -96.157558289 4.12138710125e-77
0.24177823638 0.077287019364 1128.11299912 -119.500955571 -1121.76532341 0 -1330.29271973 0 -1330.20670095 1330.29271973 -90 -119.500955571 208.52739632 240.34215892 119.816362637 -150.183637363 3.61693029608e-88 -1.46360969139e-91 -1.36044987067e-90 1.36830032598e-90 -96.0809901175 2.27692083869e-82
0.24177823638 0.077664969066 1135.8131549 -118.809333916 -1129.58171548 0 -1336.83596631 0 -1336.87395907 1336.83596631 -90 -118.809333916 207.254250824 238.893655911 119.824262642 -150.175737358 1.15594572478e-91 -4.73363668462e-95 -4.46016802137e-94 4.48521765547e-94 -96.0045298868 7.38315722268e-86
0.24177823638 0.078033822604 1143.32960441 -118.139647603 -1137.20914747 0 -1343.2309434 0 -1343.37925476 1343.2309434 -90 -118.139647603 206.021795927 237.491368154 119.831965566 -150.168034434 1.24368258064e-93 -4.91514884129e-97 -4.69777834567e-96 4.72342222074e-96 -95.9311612101 8.06607786348e-88
0.24177823638 0.078379102643 1150.38456058 -117.515902401 -1144.36609755 0 -1349.24026525 0 -1349.46724776 1349.24026525 -90 -117.515902401 204.874167694 236.185524647 119.839187934 -150.160812066 1.29527076517e-94 -4.68907988097e-98 -4.54483913595e-97 4.56896581768e-97 -95.8634126532 8.52826581063e-89
0.24177823638 0.078689931403 1156.76484055 -116.955781908 -1150.83684499 0 -1354.6806794 0 -1354.94634642 1354.6806794 -90 -116.955781908 203.843834416 235.01308721 119.845713444 -150.154286556 3.41553975351e-95 -1.10938995123e-98 -1.08688482925e-97 1.09253221768e-97 -95.8030557717 2.27472713383e-89
0.24177823638 0.078960057578 1162.34174794 -116.469247742 -1156.49147681 0 -1359.44051875 0 -1359.70672841 1359.44051875 -90 -116.469247742 202.949041938 233.994838275 119.851412672 -150.148587328 1.03664182445e-95 -2.75095054496e-99 -2.72944585932e-98 2.74327467492e-98 -95.7509972552 6.99913868436e-90
0.24177823638 0.079187714856 1167.07121413 -116.0588592 -1161.28588532 0 -1363.48030647 0 -1363.71771568 1363.48030647 -90 -116.0588592 202.194421148 233.136067159 119.856242641 -150.143757359 1.036861401e-95 -2.2890492597e-99 -2.28866156816e-98 2.30008081293e-98 -95.7073528431 7.05761485177e-90
0.24177823638 0.079374668832 1169.42563729 -115.85515139 -1163.67237943 0 -1365.49225873 0 -1367.01085618 1365.49225873 -90 -115.85515139 201.819879302 232.709823203 119.858646254 -150.141353746 1.03696901397e-95 -2.04095012252e-99 -2.04907083177e-98 2.05921042778e-98 -95.6857600804 7.08678812814e-90
0.25086368883 0.075269989823 1083.12841308 -123.671984263 -1076.04476662 0 -1293.88658584 0 -1292.27701894 1293.88658584 -90 -123.671984263 217.841819215 250.499392252 119.584488506 -150.415511494 2.33203487594e-50 -3.22023548121e-54 -2.80188281353e-53 2.82032744047e-53 -96.5563653943 1.367946272e-44
0.25086368883 0.075392885381 1084.7294038 -123.517968438 -1077.67390274 0 -1295.2287413 0 -1294.3909577 1295.2287413 -90 -123.517968438 217.554838562 250.173786671 119.586264002 -150.413735998 1.03158098972e-50 -1.42482732925e-54 -1.23972978593e-53 1.24789076091e-53 -96.5384788946 6.05117093103e-45
0.25086368883 0.075548074442 1087.98154315 -123.205716915 -1080.98288138 0 -1297.95593653 0 -1297.0591547 1297.95593653 -90 -123.205716915 216.97305515 249.513690393 119.589870535 -150.410129465 7.76816328823e-54 -1.35166702841e-57 -1.18169075462e-56 1.18939612741e-56 -96.5023104293 4.58003190245e-48
0.25086368883 0.075740595209 1091.98644702 -122.822567748 -1085.05702609 0 -1301.31629556 0 -1300.36725377 1301.31629556 -90 -122.822567748 216.259269469 248.70379986 119.594311638 -150.405688362 6.46048665503e-58 -1.39077628497e-61 -1.22311024227e-60 1.23099200791e-60 -96.4581441107 3.83323941442e-52
0.25086368883 0.075974237547 1096.80699488 -122.36338568 -1089.95983097 0 -1305.36380609 0 -1304.37895727 1305.36380609 -90 -122.36338568 215.40397512 247.733313606 119.599656828 -150.400343172 4.31914504347e-63 -1.12469896234e-66 -9.96296418186e-66 1.0026245925e-65 -96.4055216929 2.58257562324e-57
0.25086368883 0.076250340873 1102.45431616 -121.828197567 -1095.70204016 0 -1310.10933749 0 -1309.11534113 1310.10933749 -90 -121.828197567 214.407297329 246.602354855 119.605918149 -150.394081851 2.61622490518e-69 -8.01900997834e-73 -7.16537377508e-72 7.21010599214e-72 -96.3446090584 1.57885466571e-63
0.25086368883 0.076566547332 1108.86687021 -121.224038203 -1102.22045307 0 -1315.50287435 0 -1314.53357579 1315.50287435 -90 -121.224038203 213.282421277 245.325864031 119.613027024 -150.386972976 1.0770125587e-75 -3.76319182175e-79 -3.39688877836e-78 3.41767023646e-78 -96.2763841875 6.57014950211e-70
0.25086368883 0.076915933327 1115.89851326 -120.565824361 -1109.36592822 0 -1321.42313045 0 -1320.5124035 1321.42313045 -90 -120.565824361 212.057202227 243.935430228 119.620821146 -150.379178854 3.0686877744e-82 -1.17853307911e-85 -1.07611517811e-84 1.08254944915e-84 -96.2026976629 1.89499780183e-76
0.25086368883 0.077287019364 1123.32297762 -119.875610258 -1116.90810241 0 -1327.68085907 0 -1326.85294593 1327.68085907 -90 -119.875610258 210.772756662 242.477698141 119.629049602 -150.370950398 1.4864860778e-87 -6.02879674994e-91 -5.57420759467e-90 5.60671517879e-90 -96.1261415974 9.3020845238e-82
0.25086368883 0.077664969066 1130.85795377 -119.180043635 -1124.56000591 0 -1334.03871192 0 -1333.2999958 1334.03871192 -90 -119.180043635 209.478706009 241.008975702 119.637399686 -150.362600314 3.57306020263e-91 -1.46682238336e-94 -1.37412920559e-93 1.38193590188e-93 -96.0497243781 2.26721366559e-85
0.25086368883 0.078033822604 1138.20470035 -118.506538373 -1132.01836596 0 -1340.24440879 0 -1339.58081048 1340.24440879 -90 -118.506538373 208.226042834 239.587140703 119.645540788 -150.354459212 2.78954618038e-93 -1.10652110471e-96 -1.05075604913e-95 1.05656627891e-95 -95.9764276147 1.79569558967e-87
0.25086368883 0.078379102643 1145.0924316 -117.879237224 -1139.0086448 0 -1346.06826791 0 -1345.44976233 1346.06826791 -90 -117.879237224 207.059623105 238.263118829 119.653173413 -150.346826587 2.23549290172e-94 -8.13782251922e-98 -7.83175440005e-97 7.87392099362e-97 -95.9087735768 1.45966358829e-88
0.25086368883 0.078689931403 1151.31457453 -117.31592451 -1145.32172419 0 -1351.33416478 0 -1350.72403801 1351.33416478 -90 -117.31592451 206.012440593 237.074380679 119.660069123 -150.339930877 4.8624197879e-95 -1.59378689193e-98 -1.54967521442e-97 1.55784952253e-97 -95.8485248452 3.20925165798e-89
0.25086368883 0.078960057578 1156.74767231 -116.826618397 -1150.83293191 0 -1355.9359642 0 -1355.30034774 1355.9359642 -90 -116.826618397 205.103032287 236.041990816 119.666091316 -150.333908684 9.97363981301e-96 -2.65416271473e-99 -2.61423120503e-98 2.62767045383e-98 -95.7965786217 6.67444541111e-90
0.25086368883 0.079187714856 1161.35095384 -116.413892456 -1155.501465 0 -1359.83756264 0 -1359.15169352 1359.83756264 -90 -116.413892456 204.336097643 235.171305309 119.671194735 -150.328805265 9.97599520298e-96 -2.20854820636e-99 -2.19192694707e-98 2.20302549311e-98 -95.7530425174 6.72925988162e-90
0.25086368883 0.079374668832 1164.231325 -116.149062152 -1158.4230235 0 -1362.45310166 0 -1362.31057711 1362.45310166 -90 -116.149062152 204.030078166 234.774303384 119.651936785 -150.348063215 9.65179765777e-96 -1.80615298884e-99 -1.80127928715e-98 1.81031188353e-98 -95.7256313465 6.54189043258e-90
0.25086368883 0.079524954772 1165.6990458 -115.999876919 -1159.91305447 0 -1364.12881231 0 -1364.84729659 1364.12881231 -90 -115.999876919 204.215757838 234.861761883 119.597704915 -150.402295085 8.84234244864e-96 -1.40052146903e-99 -1.40041798159e-98 1.40740368304e-98 -95.7110123468 6.00772737616e-90
0.25994914128 0.075269989823 1083.01567816 -123.710948389 -1075.92682065 0 -1295.05267699 0 -1293.80186233 1295.05267699 -90 -123.710948389 219.12585634 251.635844606 119.447646053 -150.552353947 2.32380111843e-50 -3.20988710869e-54 -2.79167317176e-53 2.81006638702e-53 -96.5591217091 1.36282197359e-44
0.25994914128 0.075392885381 1084.63852453 -123.556447156 -1077.57802634 0 -1296.41394449 0 -1295.95081924 1296.41394449 -90 -123.556447156 218.835918153 251.30740777 119.449471926 -150.550528074 1.02811923497e-50 -1.42056242512e-54 -1.23548726591e-53 1.24362727928e-53 -96.5410718461 6.02957005547e-45
0.25994914128 0.075548074442 1087.93552378 -123.243212564 -1080.93229722 0 -1299.1804399 0 -1298.66396863 1299.1804399 -90 -123.243212564 218.248142689 250.641575531 119.453180762 -150.546819238 9.18443386188e-54 -1.59840769064e-57 -1.39728985324e-56 1.40640252778e-56 -96.5045719772 5.41620337953e-48
0.25994914128 0.075740595209 1091.99674717 -122.858859521 -1085.06328891 0 -1302.59030261 0 -1302.02898926 1302.59030261 -90 -122.858859521 217.527013704 249.824656108 119.457747782 -150.542252218 9.66274365363e-58 -2.08015892591e-61 -1.83011430456e-60 1.84189823066e-60 -96.4599984934 5.73787348109e-52
0.25994914128 0.075974237547 1096.88669641 -122.398238209 -1090.03612307 0 -1306.69905544 0 -1306.11152752 1306.69905544 -90 -122.398238209 216.66293237 248.845759941 119.463244434 -150.536755566 8.75277491379e-63 -2.27873181032e-66 -2.02060651307e-65 2.03341510815e-65 -96.4068872188 5.2418000297e-57
0.25994914128 0.076250340873 1102.61762482 -121.861377546 -1095.86266567 0 -1311.51869759 0 -1310.93416312 1311.51869759 -90 -121.861377546 215.65603192 247.705018397 119.469683055 -150.530316945 7.51356246671e-69 -2.30198451429e-72 -2.06035608442e-71 2.07317598192e-71 -96.3454033416 4.54527781685e-63
0.25994914128 0.076566547332 1109.12822777 -121.255336562 -1102.47994062 0 -1316.99958095 0 -1316.45466353 1316.99958095 -90 -121.255336562 214.519640326 246.417509097 119.476993076 -150.523006924 4.2042896846e-75 -1.46812740646e-78 -1.32816961715e-77 1.33625916738e-77 -96.2765313486 2.57291001466e-69
0.25994914128 0.076915933327 1116.27133662 -120.595080713 -1109.73775988 0 -1323.01966526 0 -1322.55096327 1323.01966526 -90 -120.595080713 213.281905377 245.015101586 119.485007546 -150.514992454 1.38322497738e-81 -5.3086425811e-85 -4.85974628406e-84 4.88865538449e-84 -96.2021365732 8.57338164581e-76
0.25994914128 0.077287019364 1123.81817196 -119.902734421 -1117.40321823 0 -1329.3875876 0 -1329.02161077 1329.3875876 -90 -119.902734421 211.98436937 243.544848375 119.493468422 -150.506531578 6.1344531952e-87 -2.48633135628e-90 -2.30492308916e-89 2.31829442836e-89 -96.1248335835 3.8537771805e-81
0.25994914128 0.077664969066 1131.48248229 -119.205028692 -1125.18536878 0 -1335.86253113 0 -1335.60704495 1335.86253113 -90 -119.205028692 210.677162354 242.063544148 119.502054152 -150.497945848 1.13900617197e-90 -4.67358414378e-94 -4.38895929629e-93 4.41377259872e-93 -96.0476585604 7.25460479136e-85
0.25994914128 0.078033822604 1138.96056239 -118.529461564 -1132.77593987 0 -1342.18773445 0 -1342.02885432 1342.18773445 -90 -118.529461564 209.411794586 240.629561752 119.510424806 -150.489575194 6.55032531708e-93 -2.59957283053e-96 -2.47352714006e-95 2.48714998138e-95 -95.9736224666 4.23065413674e-87
0.25994914128 0.078379102643 1145.97634219 -117.900248481 -1139.89507952 0 -1348.12865225 0 -1348.03531205 1348.12865225 -90 -117.900248481 208.233572736 239.294257517 119.518272474 -150.481727526 4.04290644584e-94 -1.4751544301e-97 -1.42193930903e-96 1.42957078676e-96 -95.9052742727 2.64746025338e-88
0.25994914128 0.078689931403 1152.31844866 -117.33522597 -1146.32884813 0 -1353.50466582 0 -1353.43810408 1353.50466582 -90 -117.33522597 207.175817694 238.095414257 119.525362327 -150.474637673 8.35451568681e-95 -2.70645027483e-98 -2.63834924778e-97 2.65219477805e-97 -95.8443971342 5.53727321748e-89
0.25994914128 0.078960057578 1157.85977422 -116.844440241 -1151.94891143 0 -1358.20615723 0 -1358.12985776 1358.20615723 -90 -116.844440241 206.257245801 237.05426736 119.531553969 -150.468446031 2.11455704433e-95 -5.90419141601e-99 -5.8153587838e-98 5.84525410942e-98 -95.7919008142 1.41722271344e-89
0.25994914128 0.079187714856 1162.55739127 -116.430470327 -1156.71230794 0 -1362.19490424 0 -1362.0812854 1362.19490424 -90 -116.430470327 205.482596296 236.176210323 119.536800914 -150.463199086 7.96658923986e-96 -1.76423401468e-99 -1.7515952311e-98 1.7604578028e-98 -95.7478973982 5.38106734427e-90
0.25994914128 0.079374668832 1166.43747294 -116.089975841 -1160.6460598 0 -1365.49160333 0 -1365.32430825 1365.49160333 -90 -116.089975841 204.845543524 235.454091735 119.541133513 -150.458866487 7.96830845429e-96 -1.43419444529e-99 -1.43299193004e-98 1.44015115016e-98 -95.7118938548 5.41812702364e-90
0.25994914128 0.079524954772 1169.90786724 -115.831733262 -1164.15943541 0 -1368.65215949 0 -1367.92996453 1368.65215949 -90 -115.831733262 204.492724081 235.019806291 119.528739171 -150.471260829 7.72224391606e-96 -1.15490966429e-99 -1.15986661898e-98 1.16560240453e-98 -95.6821913256 5.2816223473e-90
0.25994914128 0.079643705157 1173.8366722 -115.603194677 -1168.13031567 0 -1372.52529626 0 -1369.98801599 1372.52529626 -90 -115.603194677 204.394980593 234.822074583 119.49194688 -150.50805312 7.09723491187e-96 -8.85198362263e-100 -8.94462341828e-99 8.98831820951e-99 -95.6518332209 4.889613495e-90
0.26903459372 0.075269989823 1084.43481425 -123.380660853 -1077.39314412 0 -1296.68180283 0 -1296.37505457 1296.68180283 -90 -123.380660853 219.288658705 251.615419202 119.363829653 -150.636170347 2.32810750958e-50 -3.20724008431e-54 -2.80065898318e-53 2.81896350642e-53 -96.5329312504 1.36892747147e-44
0.26903459372 0.075392885381 1086.1050476 -123.226075759 -1079.09189611 0 -1298.08946385 0 -1298.61119668 1298.08946385 -90 -123.226075759 218.997567734 251.285925416 119.365658573 -150.634341427 1.03022768554e-50 -1.41974330266e-54 -1.23977360003e-53 1.24787636101e-53 -96.5146560668 6.05778439349e-45
0.26903459372 0.075548074442 1089.49950492 -122.912673431 -1082.54394925 0 -1300.95140865 0 -1301.4363856 1300.95140865 -90 -122.912673431 218.407459402 250.617955205 119.369373632 -150.630626368 1.0826920021e-53 -1.87899748701e-57 -1.64946687672e-56 1.66013478739e-56 -96.477696947 6.4018087821e-48
0.26903459372 0.075740595209 1093.68352822 -122.52811978 -1086.79814141 0 -1304.48161906 0 -1304.9434709 1304.48161906 -90 -122.52811978 217.68347765 249.798423536 119.373948393 -150.626051607 1.42450288584e-57 -3.05751305607e-61 -2.70179602375e-60 2.71904141241e-60 -96.4325542706 8.48178789738e-52
0.26903459372 0.075974237547 1098.72545903 -122.06726565 -1091.92344146 0 -1308.73943317 0 -1309.20309674 1308.73943317 -90 -122.06726565 216.815991709 248.816413016 119.379454475 -150.620545525 1.72402560842e-62 -4.47411873597e-66 -3.98569384154e-65 4.01072736721e-65 -96.3787523231 1.03532389715e-56
0.26903459372 0.076250340873 1104.64040091 -121.530144145 -1097.93456832 0 -1313.73971116 0 -1314.2418038 1313.73971116 -90 -121.530144145 215.805142837 247.672064118 119.3859043 -150.6140957 2.07047404081e-68 -6.32184401717e-72 -5.68609425142e-71 5.72112989222e-71 -96.3164512074 1.2561093051e-62
0.26903459372 0.076566547332 1111.36802409 -120.923822386 -1104.76951665 0 -1319.4338363 0 -1320.01911265 1319.4338363 -90 -120.923822386 214.664319645 246.380511851 119.393227245 -150.606772755 1.56980427797e-74 -5.46201502708e-78 -4.96707517885e-77 4.99701645767e-77 -96.2466400342 9.63632736753e-69
0.26903459372 0.076915933327 1118.75936391 -120.263277268 -1112.27628998 0 -1325.69807777 0 -1326.41122544 1325.69807777 -90 -120.263277268 213.421787787 244.973735219 119.401256134 -150.598743866 6.05024862261e-81 -2.31343131641e-84 -2.12943968408e-83 2.14196948811e-83 -96.1712008723 3.76286944236e-75
0.26903459372 0.077287019364 1126.58046273 -119.570646407 -1120.21678411 0 -1332.33604095 0 -1333.21050614 1332.33604095 -90 -119.570646407 212.119256839 243.498940604 119.409732517 -150.590267483 2.52703205793e-86 -1.02043977286e-89 -9.51415492737e-89 9.56872234728e-89 -96.0927775762 1.59375900049e-80
0.26903459372 0.077664969066 1134.53651212 -118.872673491 -1128.29146782 0 -1339.09852068 0 -1340.14663472 1339.09852068 -90 -118.872673491 210.807052853 242.013101635 119.41833428 -150.58166572 3.72393845443e-90 -1.52256585797e-93 -1.43833296578e-92 1.44636923673e-92 -96.0144458791 2.3825855739e-84
0.26903459372 0.078033822604 1142.3126926 -118.196866545 -1136.18092464 0 -1345.71780663 0 -1346.92695825 1345.71780663 -90 -118.196866545 209.536881994 240.574768707 119.426720853 -150.573279147 1.60390173641e-92 -6.34764820141e-96 -6.0763364073e-95 6.1094022744e-95 -95.9392616327 1.04118083086e-86
0.26903459372 0.078379102643 1149.62081453 -117.567446955 -1143.59315357 0 -1351.94737168 0 -1353.28421949 1351.94737168 -90 -117.567446955 208.354218116 239.235448416 119.434583708 -150.565416292 7.65011909581e-94 -2.78847797242e-97 -2.70434341996e-96 2.71868189468e-96 -95.8698175775 5.03789689317e-88
0.26903459372 0.078689931403 1156.23825045 -117.002252966 -1150.30293641 0 -1357.5954367 0 -1359.01590962 1357.5954367 -90 -117.002252966 207.292500288 238.033028583 119.441687499 -150.558312501 1.42606720522e-94 -4.57835087785e-98 -4.49288445685e-97 4.51615206274e-97 -95.8079333274 9.51348219909e-89
0.26903459372 0.078960057578 1162.02911897 -116.511329087 -1156.1731488 0 -1362.54365523 0 -1364.00394937 1362.54365523 -90 -116.511329087 206.370506426 236.988798051 119.447891483 -150.552108517 3.95553177494e-95 -1.12051292941e-98 -1.1087520836e-97 1.1143997815e-97 -95.754543577 2.66220452267e-89
0.26903459372 0.079187714856 1166.94510345 -116.097250498 -1161.15543265 0 -1366.74841784 0 -1368.21287936 1366.74841784 -90 -116.097250498 205.592985195 236.10815675 119.453149012 -150.546850988 5.78733273468e-96 -1.27850214397e-99 -1.27715974035e-98 1.28354318255e-98 -95.7097724639 3.93766257157e-90