TITLE = "Electromagnetic Field"
VARIABLES = X Y E ER EI EvR EvI EvR' EvI' Ev EvPhase EpR EpI Ep EpPhase EpToEvPhaseShift elConductivity Jr Ji J Jphase QJ
ZONE N=245, E=214, F=FEPOINT, ET=QUADRILATERAL
1 0.063102514093 5.47388928229 -0.583308843683 -5.44272125574 0 -5.98203052796 0 -5.78756675311 5.98203052796 -90 -0.583308843683 0.539309272228 0.79442035361 137.244485482 -132.755514518 4.72164109981 -4.65855324287e-05 -0.000434678936048 0.000437168147599 -96.1171702058 70.7383612618
1 0.064926829409 5.55255016105 -0.584985424169 -5.5216448997 0 -6.06764777069 0 -5.95095902292 6.06764777069 -90 -0.584985424169 0.546002870991 0.800212933022 136.975959535 -133.024040465 2.99541613069 -2.97880400617e-05 -0.000279398857801 0.000280982433351 -96.0485323227 45.4524443437
1 0.066805200713 5.70976908221 -0.588527270792 -5.67935367527 0 -6.23875099388 0 -6.118846801 6.23875099388 -90 -0.588527270792 0.559397318611 0.811974663563 136.455542372 -133.544457628 0.898483995445 -9.27079985929e-06 -8.90268694059e-05 8.95083201244e-05 -95.9170923409 14.4603889818
1 0.068738895813 5.87129401686 -0.592540792494 -5.84131413328 0 -6.41450394991 0 -6.29130286453 6.41450394991 -90 -0.592540792494 0.573189816633 0.824417228916 135.952928169 -134.047071831 0.35185560472 -3.76717254196e-06 -3.69912916015e-05 3.71826382198e-05 -95.7930889996 6.0003133955
1 0.07072920933 6.03718972738 -0.597023360794 -6.00759411775 0 -6.59497894475 0 -6.46839879649 6.59497894475 -90 -0.597023360794 0.587384826993 0.837538017504 135.468165498 -134.531834502 0.157246243639 -1.74594999432e-06 -1.75040201556e-05 1.75908877687e-05 -95.6761030771 2.8360503121
1 0.072777463235 6.2075199597 -0.601960250153 -6.17826141279 0 -6.78024677915 0 -6.65020475523 6.78024677915 -90 -0.601960250153 0.601985366364 0.851324938777 135.000707023 -134.999292977 0.0697091688149 -8.02499480643e-07 -8.20467648312e-06 8.24383242646e-06 -95.565622718 1.32803190675
1 0.074885007389 6.38234718319 -0.607336118513 -6.35338228066 0 -6.97037649209 0 -6.83678922548 6.97037649209 -90 -0.607336118513 0.616994211431 0.865765673282 134.549920096 -135.450079904 0.0278497053863 -3.32301777852e-07 -3.46078271162e-06 3.4767008842e-06 -95.4611630981 0.559696929466
1 0.077053220104 6.56173229291 -0.613137082446 -6.53302099034 0 -7.1654350838 0 -7.02821875129 7.1654350838 -90 -0.613137082446 0.632414093468 0.880849268757 134.11518742 -135.88481258 0.00888011357442 -1.09728442548e-07 -1.1626235068e-06 1.16779037957e-06 -95.3622841003 0.187890681508
1 0.079283508704 6.74573429947 -0.619350988433 -6.71723952008 0 -7.36548721923 0 -7.22455764815 7.36548721923 -90 -0.619350988433 0.648247699159 0.896566283568 133.695927596 -136.304072404 0.00181187563462 -2.31539905336e-08 -2.49244840652e-07 2.50318017434e-07 -95.2685893779 0.0402559639025
1 0.081577310105 6.9344100066 -0.625967283215 -6.90609728247 0 -7.57059490938 0 -7.42586769482 7.57059490938 -90 -0.625967283215 0.664497626905 0.912908614874 133.291596855 -136.708403145 0.000138322135774 -1.83168847975e-09 -2.00373491503e-08 2.01208958317e-08 -95.1797218515 0.0032344695581
1 0.083936091405 7.12781367463 -0.632976851264 -7.09965083306 0 -7.78081717009 0 -7.63220780317 7.78081717009 -90 -0.632976851264 0.681166337026 0.929869304404 132.901688175 -137.098311825 7.4950162706e-07 -1.0315674308e-11 -1.14747256245e-10 1.15210008054e-10 -95.0953593145 1.85131473782e-05
1 0.086361350478 7.32599666781 -0.64037185592 -7.29795355734 0 -7.99620965761 0 -7.84363366421 7.99620965761 -90 -0.64037185592 0.698256100269 0.947442351034 132.525729586 -137.474270414 8.74006505315e-11 -1.25097808942e-15 -1.41428757684e-14 1.41980942799e-14 -95.0152104777 2.28076176178e-09
1 0.088854616588 7.52900708254 -0.648145496623 -7.50105534177 0 -8.21682427907 0 -8.06019737112 8.21682427907 -90 -0.648145496623 0.715768937301 0.965622465611 132.163278314 -137.836721686 9.95721740172e-25 -1.48261060884e-29 -1.70261279827e-28 1.70905578698e-28 -94.9390107501 2.74465634079e-23
1 0.091417451013 7.73688935542 -0.656291728157 -7.70900222349 0 -8.44270877744 0 -8.28194701683 8.44270877744 -90 -0.656291728157 0.733706553946 0.984404804118 131.81391306 -138.18608694 3.60796642806e-38 -5.59032512974e-43 -6.51767238688e-42 6.54160306754e-42 -94.8665181778 1.05030526832e-36
1 0.094051447676 7.94968384957 -0.664805026702 -7.92183601029 0 -8.67390629008 0 -8.50892626541 8.67390629008 -90 -0.664805026702 0.752070279784 1.00378474189 131.477228096 -138.522771904 2.21497876808e-56 -3.57232452908e-61 -4.22617741299e-60 4.24124870192e-60 -94.79751018 6.80829278392e-55
1 0.096758233794 8.05583378686 -0.669092443219 -8.02799933383 0 -8.78923040755 0 -8.74117389692 8.78923040755 -90 -0.669092443219 0.761231073719 1.01348776271 131.314211121 -138.685788879 2.32569333112e-74 -3.90527965328e-79 -4.68568772114e-78 4.70193380555e-78 -94.7642973001 7.54646297937e-73
0.91653186296 0.063102514093 7.62317669008 -1.04312189582 -7.55147135058 0 -8.37990095538 0 -8.31902841161 8.37990095538 -90 -1.04312189582 0.828429604802 1.3320656514 141.543996945 -128.456003055 2.64491454706 -1.44784471015e-05 -0.000104813808363 0.000105809072645 -97.8647767055 76.851725261
0.91653186296 0.064926829409 7.73256027364 -1.04152231261 -7.66207906668 0 -8.4990611807 0 -8.55230528416 8.4990611807 -90 -1.04152231261 0.836982114014 1.33617547789 141.215129536 -128.784870464 1.68300945777 -9.26805325828e-06 -6.75885673037e-05 6.82211555796e-05 -97.7425684123 49.5354210247
0.91653186296 0.066805200713 7.9511513286 -1.03874325373 -7.88299243899 0 -8.73713007102 0 -8.79186004076 8.73713007102 -90 -1.03874325373 0.854137632024 1.3448401222 140.571323395 -129.428676605 0.51791514023 -2.93293727148e-06 -2.21120114169e-05 2.23057127841e-05 -97.508214797 16.1743739262
0.91653186296 0.068738895813 8.17565450352 -1.03671567867 -8.1096430771 0 -8.98152670252 0 -9.03778043435 8.98152670252 -90 -1.03671567867 0.871883625421 1.35462752037 139.937179561 -130.062820439 0.209131978684 -1.21724128246e-06 -9.46688629515e-06 9.54483594309e-06 -97.2865288109 6.91325091527
0.91653186296 0.07072920933 8.40613884268 -1.03545709891 -8.34210859491 0 -9.23233548885 0 -9.29015115734 9.23233548885 -90 -1.03545709891 0.890226893946 1.36555094835 139.314235142 -130.685764858 0.0892491337102 -5.33785211745e-07 -4.2751086925e-06 4.30830955258e-06 -97.0770140514 3.1173991394
0.91653186296 0.072777463235 8.64267109404 -1.03497072744 -8.58046554131 0 -9.48963740381 0 -9.54905341851 9.48963740381 -90 -1.03497072744 0.909171862501 1.37761048147 138.703637649 -131.296362351 0.0351736382664 -2.16131129238e-07 -1.77981420636e-06 1.79289109934e-06 -96.8790894811 1.29618868024
0.91653186296 0.074885007389 8.8853153375 -1.03525416821 -8.82478777086 0 -9.75350953246 0 -9.81456448853 9.75350953246 -90 -1.03525416821 0.928721761608 1.39080072718 138.106324648 -131.893675352 0.0111809695301 -7.0551877526e-08 -5.96316275927e-07 6.00475856393e-07 -96.6921604487 0.433800759238
0.91653186296 0.077053220104 9.13413252964 -1.03630193588 -9.0751456491 0 -10.0240245896 0 -10.086757215 10.0240245896 -90 -1.03630193588 0.948878940521 1.40511310581 137.523074258 -132.476925742 0.00228902823674 -1.48201756032e-08 -1.28318595726e-07 1.29171634396e-07 -96.5156396183 0.0932584583976
0.91653186296 0.079283508704 9.38918000288 -1.03810654435 -9.33160543133 0 -10.3012504066 0 -10.3656995031 10.3012504066 -90 -1.03810654435 0.969644975223 1.42053685324 136.954527605 -133.045472395 0.000178860251783 -1.19017264099e-09 -1.056061153e-08 1.06274659476e-08 -96.3489558356 0.00766818911517
0.91653186296 0.081577310105 9.65051092561 -1.04065920443 -9.59422866859 0 -10.5852493827 0 -10.6514537622 10.5852493827 -90 -1.04065920443 0.991020714113 1.43705965556 136.401205322 -133.598794678 1.03964551538e-06 -7.12866796532e-12 -6.48916434638e-11 6.52820289354e-11 -96.1915592186 4.70767961667e-05
0.91653186296 0.083936091405 9.91817372676 -1.04395031658 -9.86307161223 0 -10.8760779018 0 -10.9440763173 10.8760779018 -90 -1.04395031658 1.01300628959 1.45466808493 135.863521431 -134.136478569 1.10834622413e-10 -7.83695322286e-16 -7.31371041683e-15 7.3555787277e-15 -96.042924175 5.30154139954e-09
0.91653186296 0.086361350478 10.1922114861 -1.04796966649 -10.1381846221 0 -11.1737857117 0 -11.2436167812 11.1737857117 -90 -1.04796966649 1.03560108964 1.47334777425 135.341791624 -134.658208376 6.99727946632e-25 -5.10494637838e-30 -4.88021398391e-29 4.90684147941e-29 -95.9025501461 3.5349055907e-23
0.91653186296 0.088854616588 10.3288953088 -1.05012742744 -10.2753739925 0 -11.322264666 0 -11.5501173906 11.322264666 -90 -1.05012742744 1.04689067346 1.48281748575 135.088436144 -134.911563856 1.29721283227e-38 -9.77006030179e-44 -9.55988967686e-43 9.60968425167e-43 -95.8352812888 6.91972748972e-37
0.91940843578 0.063102514093 7.5693925849 -1.0335379166 -7.4984997701 0 -8.3197099815 0 -8.20934735078 8.3197099815 -90 -1.0335379166 0.821210211398 1.32007080269 141.530560301 -128.469439699 2.74107448425 -1.55995125455e-05 -0.000113195760789 0.000114265594583 -97.8476688821 78.493688915
0.91940843578 0.064926829409 7.67800696561 -1.03197418618 -7.60832157181 0 -8.4380326135 0 -8.43961283664 8.4380326135 -90 -1.03197418618 0.829711041686 1.32417800943 141.201468517 -128.798531483 1.74049042042 -9.96341147044e-06 -7.28257789125e-05 7.35042927055e-05 -97.7258852518 50.4829302699
0.91940843578 0.066805200713 7.89506224431 -1.02926152244 -7.82766754853 0 -8.67442971397 0 -8.67608087741 8.67442971397 -90 -1.02926152244 0.846762165439 1.33283192062 140.557231082 -129.442768918 0.530961420721 -3.12496307001e-06 -2.36126448889e-05 2.38185704752e-05 -97.4923380121 16.3433226107
0.91940843578 0.068738895813 8.1179910164 -1.02729242777 -8.05271462079 0 -8.91711347307 0 -8.91883874724 8.91711347307 -90 -1.02729242777 0.86439885228 1.34259806517 139.922690716 -130.077309284 0.213640674059 -1.29227773149e-06 -1.00728154531e-05 1.01553884698e-05 -97.2714039183 6.96139234369
0.91940843578 0.07072920933 8.34686225344 -1.02608513156 -8.2835400834 0 -9.16616809272 0 -9.16797075361 9.16616809272 -90 -1.02608513156 0.882628009318 1.35349037017 139.299401358 -130.700598642 0.091213350855 -5.66981214386e-07 -4.55097443832e-06 4.58616330288e-06 -97.0625953365 3.14058975134
0.91940843578 0.072777463235 8.5817426614 -1.02564321837 -8.52022025654 0 -9.42167439049 0 -9.42355782331 9.42167439049 -90 -1.02564321837 0.901454133955 1.365509269 138.688516224 -131.311483776 0.0360779858183 -2.30446473684e-07 -1.90185780275e-06 1.91577062656e-06 -96.8653361663 1.31056531413
0.91940843578 0.074885007389 8.8226963164 -1.02596458627 -8.7628288272 0 -9.68370935594 0 -9.68567705771 9.68370935594 -90 -1.02596458627 0.920880528737 1.37864966725 138.090975297 -131.909024703 0.011565255562 -7.5887002307e-08 -6.42823893051e-07 6.47288266054e-07 -96.6790355248 0.442302466882
0.91940843578 0.077053220104 9.06978421599 -1.02704401907 -9.0114360535 0 -9.95234567465 0 -9.95440125809 9.95234567465 -90 -1.02704401907 0.940909621148 1.39290326892 137.507557552 -132.492442448 0.00241004905836 -1.6236520765e-08 -1.40894678013e-07 1.41827184503e-07 -96.5031092578 0.0967714510741
0.91940843578 0.079283508704 9.32306378489 -1.02887428732 -9.26610814744 0 -10.2276512208 0 -10.229798417 10.2276512208 -90 -1.02887428732 0.961543073395 1.40825958993 136.938903943 -133.061096057 0.000197158488021 -1.36704539747e-09 -1.21564057519e-08 1.22330302229e-08 -96.3369889896 0.00832468665653
0.91940843578 0.081577310105 9.58258834194 -1.03144684604 -9.52690668678 0 -10.5096885152 0 -10.5119311769 10.5096885152 -90 -1.03144684604 0.982781828449 1.42470659344 136.385534075 -133.614465925 1.2775776079e-06 -9.15737096293e-12 -8.35480163801e-11 8.40483714468e-11 -96.1801272795 5.69038449368e-05
0.91940843578 0.083936091405 9.8484065316 -1.03475232972 -9.79388802549 0 -10.7985141478 0 -10.8008562529 10.7985141478 -90 -1.03475232972 1.00462612227 1.44223112794 135.847860274 -134.152139726 1.58718878068e-10 -1.17782745594e-15 -1.10184112417e-14 1.10811852939e-14 -96.0320007026 7.45656521158e-09
0.91940843578 0.086361350478 10.1205617217 -1.03878075378 -10.0671027077 0 -11.0941781642 0 -11.0966238182 11.0941781642 -90 -1.03878075378 1.02707545647 1.46081910708 135.326196101 -134.673803899 1.78712451967e-24 -1.38264318819e-29 -1.32554387245e-28 1.33273538726e-28 -95.8921106577 8.83189786462e-23
0.91940843578 0.088854616588 10.2563080528 -1.04094172862 -10.2033471045 0 -11.2416394119 0 -11.3992768533 11.2416394119 -90 -1.04094172862 1.03829230746 1.47024172975 135.072886212 -134.927113788 5.9671289489e-38 -4.79407259621e-43 -4.70527357919e-42 4.72963328429e-42 -95.8250747253 3.10678605316e-36
0.9225518613 0.063102514093 7.46256392828 -1.01437202894 -7.39330126776 0 -8.20017572946 0 -8.09169132757 8.20017572946 -90 -1.01437202894 0.806874461697 1.29614704929 141.499603802 -128.500396198 2.93302432676 -1.78909666748e-05 -0.000130424104058 0.000131645491738 -97.8121499693 81.6333652334
0.9225518613 0.064926829409 7.56965058999 -1.01288199169 -7.50156160418 0 -8.3168344935 0 -8.3187248592 8.3168344935 -90 -1.01288199169 0.815272889319 1.30025162124 141.170106798 -128.829893202 1.85526900649 -1.13827929483e-05 -8.35757091729e-05 8.43474345869e-05 -97.691255965 52.2932181888
0.9225518613 0.066805200713 7.78365555675 -1.01030612583 -7.71779339968 0 -8.54991056295 0 -8.55187995515 8.54991056295 -90 -1.01030612583 0.832117163272 1.30888928298 140.52509657 -129.47490343 0.557024742225 -3.51417685155e-06 -2.66716802809e-05 2.69022373604e-05 -97.4593992482 16.662835645
0.9225518613 0.068738895813 8.00345710936 -1.00845815402 -7.93965431202 0 -8.78919159203 0 -8.79124335957 8.78919159203 -90 -1.00845815402 0.849537280005 1.31861827643 139.889860764 -130.110139236 0.22261969593 -1.44364557889e-06 -1.13022631325e-05 1.13941066793e-05 -97.2400434442 7.05046692498
0.9225518613 0.07072920933 8.22912407239 -1.00735770449 -8.16722100118 0 -9.03476135223 0 -9.03689894932 9.03476135223 -90 -1.00735770449 0.867540351048 1.32945379209 139.26598659 -130.73401341 0.0951295626593 -6.34019069824e-07 -5.1112365883e-06 5.15041670123e-06 -97.0327184689 3.18377145451
0.9225518613 0.072777463235 8.46072306553 -1.00700907756 -8.40056932991 0 -9.28670034018 0 -9.28892732972 9.28670034018 -90 -1.00700907756 0.886131010272 1.34139695093 138.65463793 -131.34536207 0.0378873740049 -2.5950957153e-07 -2.1509597515e-06 2.16656036825e-06 -96.8368581019 1.33789559293
0.9225518613 0.074885007389 8.6983181541 -1.00741073673 -8.6397726481 0 -9.54508534431 0 -9.54740540013 9.54508534431 -90 -1.00741073673 0.90531269621 1.3544432311 138.056758774 -131.943241226 0.0123393157543 -8.6835837755e-08 -7.38737708309e-07 7.43824447086e-07 -96.6518790247 0.458802265319
0.9225518613 0.077053220104 8.94197041316 -1.00855798358 -8.88490099506 0 -9.80998897989 0 -9.81240589027 9.80998897989 -90 -1.00855798358 0.92508798483 1.36858488258 137.473128949 -132.526871051 0.00265745663697 -1.92036285208e-08 -1.67356706209e-07 1.68454948829e-07 -96.4772034905 0.103753068645
0.9225518613 0.079283508704 9.19173744609 -1.01044408297 -9.13602049049 0 -10.0814791933 0 -10.0839968632 10.0814791933 -90 -1.01044408297 0.945458702764 1.38381196196 136.904388182 -133.095611818 0.00023594835381 -1.7545456132e-09 -1.56656363758e-08 1.57635853617e-08 -96.3122687367 0.00968349787736
0.9225518613 0.081577310105 9.44767286496 -1.01306096052 -9.39319275788 0 -10.3596187319 0 -10.3622411861 10.3596187319 -90 -1.01306096052 0.966425974045 1.40011296851 136.351053134 -133.648946866 1.84702468732e-06 -1.41989594565e-11 -1.30059977512e-10 1.30832752122e-10 -96.156532271 7.99455557287e-05
0.9225518613 0.083936091405 9.70982573584 -1.01639970168 -9.65647434672 0 -10.6444645803 0 -10.6471959658 10.6444645803 -90 -1.01639970168 0.987990233562 1.41747528634 135.813531865 -134.186468135 2.93634870988e-10 -2.33722101925e-15 -2.19501103137e-14 2.20741922658e-14 -96.0094750739 1.34031417717e-08
0.9225518613 0.086361350478 9.97823999092 -1.02045076437 -9.9259161579 0 -10.9360673597 0 -10.9389119485 10.9360673597 -90 -1.02045076437 1.01015120183 1.43588537404 135.292132798 -134.707867202 7.37756019904e-24 -6.12163726003e-29 -5.8918179737e-28 5.9235347801e-28 -95.8706025335 3.54093880851e-22
0.9225518613 0.088854616588 10.112123345 -1.02262037328 -10.0602824127 0 -11.0815062729 0 -11.2374328822 11.0815062729 -90 -1.02262037328 1.02122386029 1.44521653272 135.038980347 -134.961019653 5.10494513242e-37 -4.39860588753e-42 -4.33383228681e-41 4.3560968612e-41 -95.8040561793 2.58077056137e-35
0.92598354977 0.063102514093 7.34824108751 -0.993590047859 -7.28075668088 0 -8.07229778591 0 -7.96580619373 8.07229778591 -90 -0.993590047859 0.791541105034 1.27033806208 141.457250851 -128.542749149 3.13904901537 -2.04627801062e-05 -0.00014997890566 0.000151368427653 -97.7708570137 84.7085482949
0.92598354977 0.064926829409 7.45369309172 -0.992183832257 -7.38734513397 0 -8.18717555628 0 -8.18937986928 8.18717555628 -90 -0.992183832257 0.799830422314 1.27444498879 141.127403628 -128.872596372 1.97860481706 -1.29727417557e-05 -9.57536161843e-05 9.66285479932e-05 -97.6510117579 54.0638679928
0.92598354977 0.066805200713 7.66443403386 -0.989764233878 -7.60024240708 0 -8.4166967271 0 -8.41898824171 8.4166967271 -90 -0.989764233878 0.816454320013 1.28307550246 140.481740531 -129.518259469 0.585128473897 -3.9454978018e-06 -3.01010029621e-05 3.035853037e-05 -97.4211506988 16.9691167841
0.92598354977 0.068738895813 7.88088888395 -0.988055912965 -7.81869148524 0 -8.6523352237 0 -8.65471746914 8.6523352237 -90 -0.988055912965 0.833643738456 1.29277502245 139.845953935 -130.154046065 0.232249990867 -1.60998611066e-06 -1.26693290306e-05 1.27712354738e-05 -97.2036625238 7.1316451819
0.92598354977 0.07072920933 8.10312630229 -0.987079931962 -8.04276834719 0 -8.89417433663 0 -8.89665094729 8.89417433663 -90 -0.987079931962 0.851405989444 1.30356002311 139.221666209 -130.778333791 0.0993409648988 -7.07856293179e-07 -5.73541848361e-06 5.77894251848e-06 -96.9980961205 3.22378894709
0.92598354977 0.072777463235 8.33121280901 -0.986841308205 -8.27254835956 0 -9.14229419713 0 -9.14486891561 9.14229419713 -90 -0.986841308205 0.869745837569 1.31543230911 138.610051165 -131.389948835 0.0398466186929 -2.91838838787e-07 -2.43104481516e-06 2.44850210178e-06 -96.8038959386 1.36448654817
0.92598354977 0.074885007389 8.56521244977 -0.987339068537 -8.50810450224 0 -9.3967713548 0 -9.39944803383 9.3967713548 -90 -0.987339068537 0.88866685256 1.32838792746 138.012055314 -131.987944686 0.0131882192817 -9.92565547813e-08 -8.48611996762e-07 8.54397710378e-07 -96.6204868685 0.475587631075
0.92598354977 0.077053220104 8.80518637335 -0.988569030478 -8.74950656914 0 -9.65767832434 0 -9.66046092988 9.65767832434 -90 -0.988569030478 0.9081717552 1.34241967331 137.428457472 -132.571542528 0.00293629202946 -2.26958210156e-08 -1.98770521214e-07 2.00062129761e-07 -96.4472981528 0.111197507368
0.92598354977 0.079283508704 9.0511923637 -0.990524951977 -8.99682056798 0 -9.92508310204 0 -9.92797571527 9.92508310204 -90 -0.990524951977 0.928262534054 1.357518146 136.85989405 -133.14010595 0.000282544355402 -2.24696703031e-09 -2.01567886256e-08 2.02816432076e-08 -96.283773184 0.0112437904593
0.92598354977 0.081577310105 9.30328433433 -0.993199228398 -9.25010815612 0 -10.199048649 0 -10.2020554687 10.199048649 -90 -0.993199228398 0.948940492915 1.3736723855 136.306876515 -133.693123485 2.69170113817e-06 -2.21305514191e-11 -2.03643941528e-10 2.04842912788e-10 -96.1293749268 0.00011293998765
0.92598354977 0.083936091405 9.56151178828 -0.996583394573 -9.50942607518 0 -10.4796323407 0 -10.4827576856 10.4796323407 -90 -0.996583394573 0.97020626548 1.3908703179 135.769806288 -134.230193712 5.5218128369e-10 -4.7008804586e-15 -4.43485123624e-14 4.45969609935e-14 -95.9835892426 2.44287255606e-08
0.92598354977 0.086361350478 9.82591924532 -1.000668349 -9.77482558864 0 -10.766885381 0 -10.7701336919 10.766885381 -90 -1.000668349 0.992059792391 1.40909895499 135.248984226 -134.751015774 3.17108510342e-23 -2.81391130248e-28 -2.72050971174e-27 2.73502363569e-27 -95.8459259594 1.47448937785e-21
0.92598354977 0.088854616588 10.0260469605 -1.00122113302 -9.97592286834 0 -10.9836387135 0 -11.0642280218 10.9836387135 -90 -1.00122113302 1.0077158452 1.42055371136 134.815143766 -135.184856234 3.08494532297e-36 -2.84253893026e-41 -2.81316220317e-40 2.82748686649e-40 -95.731773324 1.51053983435e-34
0.92598354977 0.091417451013 10.2941536886 -1.00111752961 -10.2453526076 0 -11.2736372031 0 -11.3650777587 11.2736372031 -90 -1.00111752961 1.02828459548 1.43514511776 134.234764129 -135.765235871 1.89177671404e-54 -1.81139827311e-59 -1.83359489653e-58 1.84252052407e-58 -95.5817016727 9.75111787964e-53
0.92598354977 0.094051447676 10.4312009352 -1.00397566366 -10.3827735127 0 -11.4224759613 0 -11.6727118365 11.4224759613 -90 -1.00397566366 1.0397024486 1.4453194508 133.998479509 -136.001520491 1.40540061529e-73 -1.39108347584e-78 -1.43861103309e-77 1.44532101517e-77 -95.5231179068 7.64607874127e-72
0.92972650512 0.063102514093 7.22621677188 -0.971087015061 -7.16066954041 0 -7.93585396148 0 -7.83147096397 7.93585396148 -90 -0.971087015061 0.775184421071 1.24254632305 141.400498412 -128.599501588 3.35681438061 -2.33124743175e-05 -0.000171947226224 0.000173520391011 -97.7227705687 87.5994951761
0.92972650512 0.064926829409 7.32992427116 -0.969775667878 -7.26547253342 0 -8.04883031019 0 -8.05135041629 8.04883031019 -90 -0.969775667878 0.783357776768 1.24666148211 141.070374207 -128.929625793 2.109264324 -1.47328407758e-05 -0.000109421878585 0.000110409428466 -97.6041595156 55.7267357459
0.92972650512 0.066805200713 7.53718163515 -0.967533692405 -7.47480861147 0 -8.27455610465 0 -8.27717162373 8.27455610465 -90 -0.967533692405 0.799747493186 1.25529574655 140.424218769 -129.575781231 0.615164649883 -4.41982484534e-06 -3.39253106171e-05 3.42120646808e-05 -97.3766505713 17.2503816267
0.92972650512 0.068738895813 7.75006424545 -0.965985569516 -7.68961364248 0 -8.50630545492 0 -8.50902009727 8.50630545492 -90 -0.965985569516 0.816691812439 1.26497534388 139.788075757 -130.211924243 0.242497858175 -1.79150099344e-06 -1.41824720526e-05 1.42951955063e-05 -97.1613694797 7.20091905484
0.92972650512 0.07072920933 7.96864057593 -0.965153807366 -7.90996287653 0 -8.74416111482 0 -8.74697869582 8.74416111482 -90 -0.965153807366 0.834198238286 1.27571802707 139.16360427 -130.83639573 0.103839116954 -7.88662994258e-07 -6.4279764113e-06 6.4761858994e-06 -96.9578854211 3.25894990088
0.92972650512 0.072777463235 8.19297702923 -0.965044126146 -8.13593114265 0 -8.98820280043 0 -8.99112724324 8.98820280043 -90 -0.965044126146 0.852271657779 1.28752626388 138.551986758 -131.448013242 0.0419556676522 -3.27588565343e-07 -2.74476867297e-06 2.76425159227e-06 -96.765654232 1.3895855383
0.92972650512 0.074885007389 8.42313761822 -0.965656099948 -8.36759101462 0 -9.23850677939 0 -9.24154211656 9.23850677939 -90 -0.965656099948 0.870915764765 1.30039665186 137.954170079 -132.045829921 0.0141143751671 -1.13266851862e-07 -9.73997096187e-07 9.80561783571e-07 -96.5841095912 0.492360494017
0.92972650512 0.077053220104 8.65918355743 -0.966986046131 -8.60501201115 0 -9.49514542996 0 -9.49829580618 9.49514542996 -90 -0.966986046131 0.890133418814 1.31432251621 137.370929402 -132.629070598 0.00324907801223 -2.67824872655e-08 -2.3590832478e-07 2.37423867505e-07 -96.4126882538 0.119039665419
0.92972650512 0.079283508704 8.90117280928 -0.969028199787 -8.8482600052 0 -9.75818677062 0 -9.76145644427 9.75818677062 -90 -0.969028199787 0.909926765425 1.32929498702 136.802894888 -133.197105112 0.000338161377003 -2.8675963259e-09 -2.58652183817e-08 2.60236961496e-08 -96.2508402552 0.0130148622853
0.92972650512 0.081577310105 9.14915959313 -0.971775409887 -9.09739667285 0 -10.0276939571 0 -10.0310873022 10.0276939571 -90 -0.971775409887 0.930297284204 1.34530363576 136.250569659 -133.749430341 3.94179822098e-06 -3.45572393878e-11 -3.19689776091e-10 3.21552118003e-10 -96.0980344766 0.00015991429319
0.92972650512 0.083936091405 9.4031938606 -0.975219643462 -9.35247894133 0 -10.3037247461 0 -10.3072462545 10.3037247461 -90 -0.975219643462 0.951245804761 1.36233692317 135.714345204 -134.285654796 1.05148415953e-09 -9.54579237535e-15 -9.05286623397e-14 9.10305521956e-14 -95.9537620935 4.49680362259e-08
0.92972650512 0.086361350478 9.66332073861 -0.979352221729 -9.61355843942 0 -10.5863309256 0 -10.589985208 10.5863309256 -90 -0.979352221729 0.972772486176 1.38038240917 135.194511449 -134.805488551 1.40870376932e-22 -1.33279963533e-27 -1.29530158376e-26 1.30214047204e-26 -95.817537788 6.32894438531e-21
0.92972650512 0.088854616588 9.9295799401 -0.984163841477 -9.88068093923 0 -10.8755577084 0 -10.8793494959 10.8755577084 -90 -0.984163841477 0.994876769129 1.39942677891 134.691262386 -135.308737614 2.32222955672e-35 -2.28133688814e-40 -2.2693902432e-39 2.28082817339e-39 -95.6888993871 1.0984046392e-33
0.92972650512 0.091417451013 10.2020051425 -0.989644554933 -10.1538857684 0 -11.1714430894 0 -11.1753772346 11.1714430894 -90 -0.989644554933 1.01755732098 1.41945582856 134.204701474 -135.795298526 2.04143662727e-53 -2.07748373738e-58 -2.11309681589e-57 2.12328462136e-57 -95.5674071906 1.01801317501e-51
0.92972650512 0.094051447676 10.3378601918 -0.992508972035 -10.2901056106 0 -11.318988231 0 -11.4780986437 11.318988231 -90 -0.992508972035 1.02888262041 1.42957126769 133.96881045 -136.03118955 1.20106552515e-72 -1.26278147433e-77 -1.31197956764e-76 1.31804270615e-76 -95.5091775482 6.32451459649e-71
0.9338054383 0.063102514093 7.09631925349 -0.946750549489 -7.03287966797 0 -7.79066286457 0 -7.68850468643 7.79066286457 -90 -0.946750549489 0.757783196601 1.21267175209 141.325531788 -128.674468212 3.58273958604 -2.64194625264e-05 -0.000196313321802 0.000198083111472 -97.6666547951 90.1631129765
0.9338054383 0.064926829409 7.19816999132 -0.945546148107 -7.13578095264 0 -7.9016146069 0 -7.90445014048 7.9016146069 -90 -0.945546148107 0.76583365426 1.21680207896 140.995228117 -129.004771883 2.24531423554 -1.66523549858e-05 -0.000124585753792 0.000125693912566 -97.5494951661 57.2001723005
0.9338054383 0.066805200713 7.4017193798 -0.943505287381 -7.34132380044 0 -8.12329902418 0 -8.12623815877 8.12329902418 -90 -0.943505287381 0.781975223739 1.22545314754 140.348794991 -129.651205009 0.646921743809 -4.93627638547e-06 -3.81611396714e-05 3.84791398205e-05 -97.3247568453 17.4924497384
0.9338054383 0.068738895813 7.61079917847 -0.942140231789 -7.55224701919 0 -8.35090691234 0 -8.35395353871 8.35090691234 -90 -0.942140231789 0.798659893155 1.235124642 139.712556227 -130.287443773 0.25330225673 -1.98781261526e-06 -1.58476296928e-05 1.59718359297e-05 -97.1120831168 7.25365761687
0.9338054383 0.07072920933 7.82547764688 -0.941474915738 -7.76862508241 0 -8.58452042725 0 -8.58767854121 8.58452042725 -90 -0.941474915738 0.815895344836 1.24583555555 139.088208699 -130.911791301 0.108605312031 -8.7637974875e-07 -7.19243451323e-06 7.24563991507e-06 -96.9110646004 3.28729152066
0.9338054383 0.072777463235 8.04582104693 -0.941515729182 -7.99053223713 0 -8.82421881433 0 -8.82749251913 8.82421881433 -90 -0.941515729182 0.833686577196 1.25758897787 138.476941437 -131.523058563 0.0442102721358 -3.6682309207e-07 -3.09446887642e-06 3.11613849918e-06 -96.7211691185 1.41229868185
0.9338054383 0.074885007389 8.27189334033 -0.942262759686 -8.21804061164 0 -9.07007801019 0 -9.0734715178 9.07007801019 -90 -0.942262759686 0.852037398546 1.2703820203 137.87969853 -132.12030147 0.0151185649555 -1.28955534664e-07 -1.11638108128e-06 1.12380536741e-06 -96.541839615 0.508746196558
0.9338054383 0.077053220104 8.50375579445 -0.943712789939 -8.45121941613 0 -9.32217021467 0 -9.32568784818 9.32217021467 -90 -0.943712789939 0.870950798546 1.28420850481 137.297247794 -132.702752206 0.00359791834812 -3.15296787318e-08 -2.79577420596e-07 2.81349845548e-07 -96.3725207808 0.127179535311
0.9338054383 0.079283508704 8.74146654324 -0.945860496691 -8.69013436249 0 -9.58056343424 0 -9.58420962903 9.58056343424 -90 -0.945860496691 0.890429071749 1.299060062 136.730209029 -133.269790971 0.000404052438395 -3.64217767444e-09 -3.30619661632e-08 3.3261980347e-08 -96.2126696887 0.0149985487899
0.9338054383 0.081577310105 8.98508011155 -0.948699146007 -8.93484712694 0 -9.84532099351 0 -9.84910029883 9.84532099351 -90 -0.948699146007 0.910473866568 1.31492676742 136.179072631 -133.820927369 5.77753102034e-06 -5.38388509361e-11 -5.01158627028e-10 5.04042280565e-10 -96.0617615098 0.000225998282914
0.9338054383 0.083936091405 9.23464690646 -0.952221098873 -9.18541481215 0 -10.1165010146 0 -10.1204180952 10.1165010146 -90 -0.952221098873 0.931086202401 1.33179759116 135.64421558 -134.35578442 2.01924495895e-09 -1.94868890309e-14 -1.85934943822e-13 1.86953324205e-13 -95.9192930896 8.32457227404e-08
0.9338054383 0.086361350478 9.49021267703 -0.956418059795 -9.44188941129 0 -10.394155863 0 -10.3982155001 10.394155863 -90 -0.956418059795 0.95226645169 1.34966061846 135.125912225 -134.874087775 6.41705226797e-22 -6.45277424432e-27 -6.30934923593e-26 6.34226086201e-26 -95.7847843105 2.77780711253e-20
0.9338054383 0.088854616588 9.75181794214 -0.961281105871 -9.70431726451 0 -10.6783315587 0 -10.6825386504 10.6783315587 -90 -0.961281105871 0.974014294228 1.36850308235 134.624340334 -135.375659666 2.43476372862e-34 -2.54209954852e-39 -2.54390053983e-38 2.55657051914e-38 -95.657777813 1.10932114085e-32
0.9338054383 0.091417451013 10.019497387 -0.966800668403 -9.97273848752 0 -10.9690671513 0 -10.9734267137 10.9690671513 -90 -0.966800668403 0.996328663774 1.38831135122 134.139586742 -135.860413258 4.57005113939e-52 -4.94353985398e-57 -5.05762618718e-56 5.08172891883e-56 -95.5378383554 2.19492955718e-50