TITLE = "Electromagnetic Field"
VARIABLES = X Y E ER EI EvR EvI EvR' EvI' Ev EvPhase EpR EpI Ep EpPhase EpToEvPhaseShift elConductivity Jr Ji J Jphase QJ
ZONE N=292, E=254, F=FEPOINT, ET=QUADRILATERAL
0.41440183287 0.058224695716 368.044805162 -75.5533422068 -360.206428438 0 -474.890018457 0 -492.377342599 474.890018457 -90 -75.5533422068 114.683590019 137.334021052 123.376819854 -146.623180146 1.32211839315 -0.00244243027819 -0.0116444760949 0.0118978691028 -101.846066172 89545.0814481
0.41440183287 0.060915930501 378.136822213 -74.2284908149 -370.76244028 0 -483.585765349 0 -513.771156971 483.585765349 -90 -74.2284908149 112.823325069 135.051766296 123.340951148 -146.659048852 0.785348053783 -0.00142788792184 -0.00687304741018 0.00701991813042 -101.336579198 53875.5855882
0.41440183287 0.063299251501 397.791055152 -71.7028501509 -391.265369586 0 -500.539022238 0 -532.482972551 500.539022238 -90 -71.7028501509 109.273652652 130.698259762 123.271489314 -146.728510686 0.117388331421 -0.000178922808982 -0.000952311603414 0.00096898630255 -100.393882293 9048.14264253
0.41440183287 0.065285352334 414.467293576 -69.6562014234 -408.56636948 0 -514.957037512 0 -547.885745178 514.957037512 -90 -69.6562014234 106.390668032 127.165104807 123.213299894 -146.786700106 0.0280376358229 -3.45804691726e-05 -0.000198785123208 0.000201771837252 -99.6806274006 2357.92958506
0.41440183287 0.066940436362 428.139072129 -68.0370391067 -422.69511294 0 -526.800039592 0 -560.574100025 526.800039592 -90 -68.0370391067 104.104926653 124.365897614 123.166134394 -146.833865606 0.0060979950696 -6.16211544462e-06 -3.75999495081e-05 3.81016569536e-05 -99.1471199986 548.234711706
0.41440183287 0.068319673052 439.365619033 -66.7433790171 -434.264513938 0 -536.539749888 0 -571.035712436 536.539749888 -90 -66.7433790171 102.27523595 122.126589419 123.127763784 -146.872236216 0.000909681913799 -7.58928071224e-07 -4.85630656627e-06 4.91525452745e-06 -98.7395741676 86.2151077326
0.41440183287 0.06946903696 448.599218565 -65.7016636652 -443.760520207 0 -544.560020319 0 -579.669761951 544.560020319 -90 -65.7016636652 100.799500112 120.321439002 123.096435864 -146.903564136 6.26199451847e-05 -4.30954289866e-08 -2.86858750474e-07 2.90077900843e-07 -98.4230911341 6.20002746502
0.41440183287 0.070426840216 456.205554196 -64.8575615211 -451.570877906 0 -551.172950434 0 -586.802645105 551.172950434 -90 -64.8575615211 99.6020725279 118.857379655 123.070776373 -146.929223627 1.39205817769e-06 -7.88658996994e-10 -5.42488839599e-09 5.48191573433e-09 -98.1741057687 0.142934929838
0.41440183287 0.071225009597 462.480596657 -64.1701325103 -458.006557029 0 -556.632329037 0 -592.701176278 556.632329037 -90 -64.1701325103 98.6257720079 117.664137196 123.049702041 -146.950297959 1.37798316362e-08 -6.4338358072e-12 -4.54654265206e-11 4.59183987551e-11 -97.9761737488 0.00145762000709
0.41440183287 0.071890150747 467.664316605 -63.6080090983 -463.318043418 0 -561.144701113 0 -597.583549456 561.144701113 -90 -63.6080090983 97.8266576944 116.687762963 123.032353187 -146.967646813 9.33566208557e-11 -3.60140453738e-14 -2.60165706353e-13 2.62646542384e-13 -97.8175007335 1.01169010816e-05
0.41440183287 0.07244443504 471.951701647 -63.1468222281 -467.707890129 0 -564.878390616 0 -601.62835585 564.878390616 -90 -63.1468222281 97.1705004867 115.886269632 123.018043057 -146.981956943 4.77341869197e-19 -1.52232544588e-22 -1.11990144086e-21 1.13020086141e-21 -97.6894302126 5.27681313398e-14
0.41440183287 0.072906338616 475.501562181 -62.7674196137 -471.340472168 0 -567.970806143 0 -604.981950431 567.970806143 -90 -62.7674196137 96.6303339759 115.226605097 123.006219767 -146.993780233 3.07185950738e-22 -8.11054982525e-26 -6.05644451574e-25 6.11050983244e-25 -97.5854836693 3.45165040912e-17
0.41440183287 0.073291258264 477.241364522 -62.582088995 -473.120282959 0 -569.48666067 0 -607.764441538 569.48666067 -90 -62.582088995 96.3663777111 114.904293289 123.000431401 -146.999568599 4.59090762636e-25 -1.0047667388e-28 -7.59603157077e-28 7.66219627937e-28 -97.5350686013 5.22810999605e-20
0.42348728532 0.058224695716 347.296003202 -72.0028870148 -339.749181297 0 -448.373093473 0 -438.566668506 448.373093473 -90 -72.0028870148 108.623912176 130.321608057 123.54818827 -146.45181173 1.21131229796 -0.00214219371525 -0.0101180829585 0.0103423938989 -101.973219421 74110.1307395
0.42348728532 0.060915930501 356.635234145 -70.7710745013 -349.525828958 0 -456.439011129 0 -456.880001664 456.439011129 -90 -70.7710745013 106.913182171 128.215153402 123.510899982 -146.489100018 0.723692878714 -0.00125841783053 -0.00600204631422 0.00613266606438 -101.469265659 44827.1359496
0.42348728532 0.063299251501 374.809641631 -68.4221625127 -368.500983811 0 -472.149011205 0 -472.798068067 472.149011205 -90 -68.4221625127 103.648027394 124.195982009 123.438656368 -146.561343632 0.113457034737 -0.000165231219985 -0.00086888020931 0.000884464941196 -100.536348702 7830.07347712
0.42348728532 0.065285352334 390.204049304 -66.5175404137 -384.486037825 0 -485.480626296 0 -485.826127472 485.480626296 -90 -66.5175404137 100.994588471 120.932269832 123.378070738 -146.621929262 0.0272021187754 -3.20810654831e-05 -0.000181895164076 0.000184704398519 -99.829686344 2043.97918977
0.42348728532 0.066940436362 402.805632635 -65.009918629 -397.520345833 0 -496.410099914 0 -496.504191715 496.410099914 -90 -65.009918629 98.8897540818 118.34520583 123.328909878 -146.671090122 0.00589076172773 -5.6974486262e-06 -3.42479237267e-05 3.47188205052e-05 -99.3006327013 472.855278389
0.42348728532 0.068319673052 413.139733814 -63.8048181945 -408.179547669 0 -505.383670783 0 -505.269757256 505.383670783 -90 -63.8048181945 97.2041231145 116.274693302 123.288878062 -146.711121938 0.00086795343734 -6.93812417267e-07 -4.37024415025e-06 4.42499556274e-06 -98.8962018976 73.4921605547
0.42348728532 0.06946903696 421.629739673 -62.8340355932 -416.918643906 0 -512.762701725 0 -512.476782143 512.762701725 -90 -62.8340355932 95.8440578194 114.604982954 123.256167504 -146.743832496 5.82929992329e-05 -3.84943528612e-08 -2.52143194787e-07 2.55065706451e-07 -98.5819592933 5.16929553744
0.42348728532 0.070426840216 428.61685593 -62.0471513085 -424.099602258 0 -518.839728865 0 -518.411585885 518.839728865 -90 -62.0471513085 94.7401266068 113.250338365 123.229357392 -146.770642608 1.26017282096e-06 -6.86179218524e-10 -4.64416091187e-09 4.69459705518e-09 -98.3346226215 0.116257238025
0.42348728532 0.071225009597 434.376429311 -61.4061429176 -430.011909924 0 -523.851717833 0 -523.30595199 523.851717833 -90 -61.4061429176 93.8398079092 112.145972993 123.207325536 -146.792674464 1.22412050548e-08 -5.49974987685e-12 -3.82349734619e-11 3.86286410839e-11 -98.13792713 0.00116586992246
0.42348728532 0.071890150747 439.131125848 -60.8818571477 -434.88816185 0 -527.99087562 0 -527.347790488 527.99087562 -90 -60.8818571477 93.1027137703 111.24211692 123.1891798 -146.8108202 8.19747755715e-11 -3.04537706026e-14 -2.1639463978e-13 2.18527892861e-13 -97.980196439 8.00828090603e-06
0.42348728532 0.07244443504 443.061459484 -60.4516303454 -438.916025676 0 -531.413388488 0 -530.689737762 531.413388488 -90 -60.4516303454 92.4973628122 110.500010839 123.174206408 -146.825793592 3.947648093e-19 -1.21640705132e-22 -8.81137395296e-22 8.89497339255e-22 -97.8528538041 3.96781096311e-14
0.42348728532 0.072906338616 446.314162492 -60.097640191 -442.24750197 0 -534.246441141 0 -533.456052397 534.246441141 -90 -60.097640191 91.9989391713 109.889126579 123.161831 -146.838169 2.53551998797e-22 -6.46963489684e-26 -4.7559784984e-25 4.79979868823e-25 -97.7494760051 2.59042693679e-17
0.42348728532 0.073291258264 447.907930966 -59.9247081894 -443.879377862 0 -535.634737344 0 -535.748127133 535.634737344 -90 -59.9247081894 91.7553594818 109.590623315 123.155771264 -146.844228736 3.80658307996e-25 -8.05022563676e-29 -5.98924521838e-28 6.04312818242e-28 -97.6993311076 3.93783906637e-20
0.43257273777 0.052842226144 254.843705056 -66.6974795621 -245.960891661 0 -343.975869898 0 -356.816575687 343.975869898 -90 -66.6974795621 98.0149782373 118.555850715 124.234602747 -145.765397253 43.1436202176 -0.0703597283357 -0.259466199204 0.268836753255 -105.172095299 1400987.9812
0.43257273777 0.05553346093 263.524052421 -65.4552547679 -255.241477548 0 -351.547511837 0 -373.225557487 351.547511837 -90 -65.4552547679 96.3060342891 116.444180087 124.201740604 -145.798259396 30.4940835422 -0.049188532036 -0.187441040373 0.193802290304 -104.408389267 1031042.96516
0.43257273777 0.058224695716 295.980545031 -64.8340567934 -288.771832396 0 -384.967960514 0 -389.316199412 384.967960514 -90 -64.8340567934 96.1961281179 116.005636343 123.986965765 -146.013034235 6.62796639657 -0.0104262681432 -0.0434975404122 0.0447311122083 -102.697263139 253010.463602
0.43257273777 0.060915930501 315.831092016 -64.0884458891 -309.245962044 0 -404.811338122 0 -405.058271583 404.811338122 -90 -64.0884458891 95.5653760782 115.066069074 123.855646713 -146.144353287 0.616528994745 -0.00096819326417 -0.0045217636619 0.00462434558897 -101.730187101 29997.7238145
0.43257273777 0.063299251501 331.305329437 -62.0734631131 -325.429465458 0 -418.263578918 0 -418.682079099 418.263578918 -90 -62.0734631131 92.83411346 111.675439565 123.7774005 -146.2225995 0.10591869783 -0.000139832389826 -0.000716581357145 0.000730108004873 -100.815947351 5718.06617453
0.43257273777 0.065285352334 344.372894539 -60.4375780219 -339.02239225 0 -429.634294409 0 -429.789475483 429.634294409 -90 -60.4375780219 90.6119021591 108.918884579 123.711684515 -146.288315485 0.0255834499074 -2.74085635978e-05 -0.000150930823081 0.000153400718703 -100.121799193 1498.54666292
0.43257273777 0.066940436362 355.040966312 -59.1412564385 -350.076687328 0 -438.923934545 0 -438.863555941 438.923934545 -90 -59.1412564385 88.8472472175 106.731530146 123.658278281 -146.341721719 0.00549191641441 -4.83280361697e-06 -2.81400665614e-05 2.85522149643e-05 -99.6011350116 342.715846709
0.43257273777 0.068319673052 363.769366921 -58.1040830131 -359.096064317 0 -446.528786836 0 -446.291941439 446.528786836 -90 -58.1040830131 87.4327225187 104.979319583 123.614729203 -146.385270797 0.000789030435571 -5.74454747979e-07 -3.49766746783e-06 3.54454222034e-06 -99.2025208795 51.8250995808
0.43257273777 0.06946903696 370.92628985 -57.2679093521 -366.476441339 0 -452.766922242 0 -452.385523804 452.766922242 -90 -57.2679093521 86.290480903 103.565187913 123.579102275 -146.420897725 5.03591624864e-05 -3.0304438622e-08 -1.91533922043e-07 1.93917174546e-07 -98.8924230236 3.45740967603
0.43257273777 0.070426840216 376.80671878 -56.5896776839 -372.53108881 0 -457.893801109 0 -457.393869604 457.893801109 -90 -56.5896776839 85.3627122988 102.417129328 123.549872399 -146.450127601 1.02701505016e-06 -5.09857582248e-10 -3.32445668975e-09 3.36333853294e-09 -98.6481075379 0.0732102565678
0.43257273777 0.071225009597 381.647453978 -56.0368657824 -377.509309007 0 -462.114929658 0 -461.517676199 462.114929658 -90 -56.0368657824 84.6056206513 101.480651949 123.525831617 -146.474168383 9.58750304126e-09 -3.92906294626e-12 -2.62802256893e-11 2.65724055794e-11 -98.4536567688 0.000704352380446
0.43257273777 0.071890150747 385.639111647 -55.5845009967 -381.610526052 0 -465.596005556 0 -464.918732305 465.596005556 -90 -55.5845009967 83.9854795038 100.713835534 123.506017139 -146.493982861 6.26638216578e-11 -2.12423786936e-14 -1.45061268061e-13 1.46608869768e-13 -98.2976213216 4.71526405083e-06
0.43257273777 0.07244443504 388.935610664 -55.2131438388 -384.995023703 0 -468.470988733 0 -467.727826371 468.470988733 -90 -55.2131438388 83.4759650295 100.083991606 123.489656924 -146.510343076 2.6283321667e-19 -7.39085893017e-23 -5.13929341334e-22 5.192183547e-22 -98.1715770439 2.03059934324e-14
0.43257273777 0.072906338616 391.661641203 -54.9074892592 -387.792191826 0 -470.848493726 0 -470.051000708 470.848493726 -90 -54.9074892592 83.0563019007 99.5653434832 123.476128507 -146.523871493 1.68522653899e-22 -3.92484944385e-26 -2.76746410042e-25 2.79516654905e-25 -98.0692057615 1.3217699616e-17
0.43257273777 0.073291258264 386.019983793 -53.9586234492 -382.229024775 0 -463.734158292 0 -471.974490533 463.734158292 -90 -53.9586234492 81.5051335173 97.7480761941 123.512995703 -146.487004297 1.81289859079e-25 -3.49954525729e-29 -2.49567733083e-28 2.52010274573e-28 -98.0435889884 1.43812725112e-20
0.43257273777 0.073612024636 369.275618142 -52.0397748414 -365.590404673 0 -443.865040934 0 -473.568626236 443.865040934 -90 -52.0397748414 78.2746362606 93.9949830963 123.617379591 -146.382620409 2.72229354903e-28 -4.12862800672e-32 -2.90044833653e-31 2.92968534915e-31 -98.1013141557 1.85612075043e-23
0.44165819021 0.050150991358 211.239336692 -62.0109885407 -201.93240123 0 -291.682161336 0 -302.261814374 291.682161336 -90 -62.0109885407 89.7497601064 109.088872663 124.641839128 -145.358160872 63.3737034271 -0.0960894902035 -0.312905534106 0.327327150419 -107.071086412 1413932.51492
0.44165819021 0.052842226144 230.866151949 -62.8652622154 -222.116215791 0 -313.612806826 0 -316.83780795 313.612806826 -90 -62.8652622154 91.4965910355 111.012634754 124.501055963 -145.498944037 49.2834445259 -0.0756578521769 -0.264383596749 0.275029584939 -105.857868339 1291767.67035
0.44165819021 0.05553346093 248.762764092 -62.1418423126 -240.853532758 0 -331.664195796 0 -331.121274014 331.664195796 -90 -62.1418423126 90.8106630381 110.037841224 124.394470725 -145.605529275 29.6678773849 -0.0454991761435 -0.172350168613 0.178268034011 -104.496982159 899803.331837
0.44165819021 0.058224695716 264.749144821 -59.891420769 -257.868361258 0 -345.673045825 0 -345.088411497 345.673045825 -90 -59.891420769 87.8046845663 106.286281469 124.307642328 -145.692357672 8.98877926129 -0.0134129389514 -0.0551652314756 0.0567732265431 -103.100972061 301010.138814
0.44165819021 0.060915930501 279.47701233 -57.8901792654 -273.403536639 0 -358.575260703 0 -358.71419831 358.575260703 -90 -57.8901792654 85.1717240641 102.983541327 124.212979376 -145.787020624 0.537607661477 -0.000760684904723 -0.00348359849272 0.00356575269568 -101.975669102 20497.6111034
0.44165819021 0.063299251501 292.729873901 -56.1697206039 -287.282883108 0 -370.188231173 0 -370.474983128 370.188231173 -90 -56.1697206039 82.905348065 100.142079486 124.127622735 -145.872377265 0.0992092383278 -0.000118416299668 -0.000592555583434 0.000604280362794 -101.078670948 4183.33879686
0.44165819021 0.065285352334 303.902588023 -54.7715838676 -298.92148831 0 -379.981038549 0 -380.04179717 379.981038549 -90 -54.7715838676 81.0595502392 97.8297982144 124.055914577 -145.944085423 0.02412118389 -2.34110468889e-05 -0.000125508586126 0.000127674439283 -100.395990485 1100.55121917
0.44165819021 0.066940436362 313.01070045 -53.662673031 -308.373231232 0 -387.965679882 0 -387.84304443 387.965679882 -90 -53.662673031 79.5924486495 95.9933629881 123.997606745 -146.002393255 0.00513772702879 -4.10196092851e-06 -2.31989164044e-05 2.35588977549e-05 -99.8829352207 249.187985399
0.44165819021 0.068319673052 320.454151269 -52.774751644 -316.076263344 0 -394.491729835 0 -394.220110038 394.491729835 -90 -52.774751644 78.4154664915 94.5211085481 123.950033535 -146.049966465 0.00072148342777 -4.7702976999e-07 -2.81586985947e-06 2.85600039124e-06 -99.4895315371 36.7637302717
0.44165819021 0.06946903696 326.551806087 -52.0584220331 -322.373700533 0 -399.838053689 0 -399.445205725 399.838053689 -90 -52.0584220331 77.4643531562 93.3321032398 123.911093892 -146.088906108 4.39826806523e-05 -2.40472046928e-08 -1.47116494731e-07 1.49069330885e-07 -99.1830956478 2.338473525
0.44165819021 0.070426840216 331.558189904 -51.4770613186 -327.53612889 0 -404.227469034 0 -403.735783933 404.227469034 -90 -51.4770613186 76.6913401445 92.3662415777 123.879131095 -146.120868905 8.5331497703e-07 -3.85053220481e-10 -2.42683252788e-09 2.45719714911e-09 -98.9414109034 0.0470223287616
0.44165819021 0.071225009597 335.676994199 -51.0029735445 -331.77826034 0 -407.838454506 0 -407.266016075 407.838454506 -90 -51.0029735445 76.0601941658 91.5779837284 123.852831779 -146.147168221 7.7127129687e-09 -2.87415753011e-12 -1.85605980411e-11 1.87818708714e-11 -98.7488860573 0.000437372581918
0.44165819021 0.071890150747 339.071765596 -50.6148667858 -335.271430779 0 -410.81440927 0 -410.175850138 410.81440927 -90 -50.6148667858 75.5429784914 90.9322553602 123.831148141 -146.168851859 4.95008209109e-11 -1.52642572205e-14 -1.00543464461e-13 1.01695856527e-13 -98.5942839768 2.87182373158e-06
0.44165819021 0.07244443504 341.874289794 -50.2961484686 -338.153070859 0 -413.270933608 0 -412.578121506 413.270933608 -90 -50.2961484686 75.1178627482 90.4016760555 123.813239189 -146.186760811 1.84868056676e-19 -4.72845543734e-23 -3.16808797042e-22 3.20318975301e-22 -98.4693220931 1.09870684849e-14
0.44165819021 0.072906338616 344.191146861 -50.0337418598 -340.533939394 0 -415.301538695 0 -414.564123492 415.301538695 -90 -50.0337418598 74.7675993014 89.9646328355 123.798426281 -146.201573719 1.19206235677e-22 -2.52579684922e-26 -1.71491573941e-25 1.73342155574e-25 -98.3677787596 7.18593793814e-18
0.44165819021 0.073291258264 346.108837062 -49.8172444135 -342.503686431 0 -416.98212339 0 -416.207972168 416.98212339 -90 -49.8172444135 74.4784369589 89.603908019 123.786159182 -146.213840818 1.01264262502e-25 -1.77853901267e-29 -1.22068369004e-28 1.23357601371e-28 -98.2849047191 6.16992968544e-21
0.44165819021 0.073612024636 347.048564632 -49.7113288124 -343.468688409 0 -417.805613808 0 -417.570032753 417.805613808 -90 -49.7113288124 74.3369253991 89.4273954732 123.780146133 -146.219853867 2.4278730628e-28 -3.53733816176e-32 -2.44921752914e-31 2.47463757295e-31 -98.2445923898 1.49080657007e-23
0.45074364266 0.050150991358 199.734777173 -58.7676277443 -190.893491547 0 -275.302979326 0 -268.381705051 275.302979326 -90 -58.7676277443 84.4094877786 102.853040773 124.859637139 -145.140362861 62.4587184142 -0.0898215116703 -0.291776352502 0.305289035505 -107.113730941 1252099.33592
0.45074364266 0.052842226144 206.865818018 -57.7847860376 -198.606977751 0 -281.64075024 0 -281.158592929 281.64075024 -90 -57.7847860376 83.0337724899 101.162396962 124.847401807 -145.152598193 51.487979784 -0.0730781012471 -0.248209065542 0.258771699303 -106.255164032 1092598.04546
0.45074364266 0.05553346093 220.983638023 -55.8217136288 -213.797941714 0 -294.173208803 0 -293.657940221 294.173208803 -90 -55.8217136288 80.3752670892 97.8589522714 124.791868513 -145.208131487 28.1053902151 -0.0387128553187 -0.144881236612 0.149974587906 -104.660715913 672177.498817
0.45074364266 0.058224695716 234.794222983 -53.9056685176 -228.507655441 0 -306.409599692 0 -305.860308808 306.409599692 -90 -53.9056685176 77.9019442507 94.7346259205 124.69257295 -145.30742705 8.23558576756 -0.0110505784649 -0.0448091359326 0.0461522186654 -103.297262547 217096.013936
0.45074364266 0.060915930501 247.505070971 -52.2026168454 -241.927042019 0 -317.661567314 0 -317.745724569 317.661567314 -90 -52.2026168454 75.7345252953 91.9833334082 124.588100805 -145.411899195 0.47901578476 -0.00060986925681 -0.00274489160856 0.00281188047676 -102.19542481 14329.4907796
0.45074364266 0.063299251501 258.933406979 -50.7378032183 -253.907471895 0 -327.775181197 0 -327.990251903 327.775181197 -90 -50.7378032183 73.8677093018 89.6150307715 124.494159775 -145.505840225 0.0933974207803 -0.00010061899094 -0.000493042728785 0.000503211650718 -101.314823977 3082.22576706
0.45074364266 0.065285352334 268.561389199 -49.5466604781 -263.947526558 0 -336.293752032 0 -336.314824328 336.293752032 -90 -49.5466604781 72.3462254744 87.6865428058 124.415293376 -145.584706624 0.0228358807869 -2.00425897038e-05 -0.000104943449105 0.000106841057806 -100.643082524 813.729052817
0.45074364266 0.066940436362 276.406262904 -48.601337681 -272.097258367 0 -343.233287355 0 -343.097859526 343.233287355 -90 -48.601337681 71.1360289878 86.1539330808 124.351182917 -145.648817083 0.00483118306191 -3.49310985239e-06 -1.92556089929e-05 1.95699720489e-05 -100.137297519 182.705627478
0.45074364266 0.068319673052 282.815146757 -47.8439734095 -278.737005148 0 -348.901502579 0 -348.639578008 348.901502579 -90 -47.8439734095 70.1644974312 84.9245152818 124.298880929 -145.701119071 0.000665195415903 -3.98664912658e-07 -2.29005312849e-06 2.32450175601e-06 -99.7488756098 26.3933942842
0.45074364266 0.06946903696 288.064113788 -47.2326607979 -284.164013394 0 -353.54294524 0 -353.178527315 353.54294524 -90 -47.2326607979 69.3789318455 83.9310885653 124.256071787 -145.743928213 3.9010381723e-05 -1.93422594258e-08 -1.14994428766e-07 1.16610065492e-07 -99.4459408049 1.61277482891
0.45074364266 0.070426840216 292.3731127 -46.7363095537 -288.612308676 0 -357.352433367 0 -356.904749635 357.352433367 -90 -46.7363095537 68.7401246914 83.1237137028 124.220932261 -145.779067739 7.27582975185e-07 -2.97862289847e-10 -1.82213227436e-09 1.84632176797e-09 -99.2067699579 0.0311298349362
0.45074364266 0.071225009597 295.917912537 -46.3313894679 -292.267351745 0 -360.485662373 0 -359.970149025 360.485662373 -90 -46.3313894679 68.2183106271 82.4645243284 124.192018054 -145.807981946 6.42504002338e-09 -2.1729923789e-12 -1.36065117395e-11 1.37789679722e-11 -99.0160840519 0.000282531723833
0.45074364266 0.071890150747 298.839493343 -45.9997965343 -295.276993438 0 -363.067511885 0 -362.496596337 363.067511885 -90 -45.9997965343 67.7905184469 81.924331891 124.168177354 -145.831822646 4.08148206301e-11 -1.14254541523e-14 -7.29114748755e-14 7.38014234273e-14 -98.8628493153 1.83405683828e-06
0.45074364266 0.07244443504 301.251373143 -45.7274113342 -297.759744475 0 -365.198525618 0 -364.582244473 365.198525618 -90 -45.7274113342 67.4387811426 81.4803316497 124.148485872 -145.851514128 1.39887669909e-19 -3.24699927759e-23 -2.1056354726e-22 2.13052866003e-22 -98.7389189288 6.42281648235e-15
0.45074364266 0.072906338616 303.245312594 -45.5030979474 -299.811070228 0 -366.959960934 0 -366.30644627 366.959960934 -90 -45.5030979474 67.148890706 81.1145081072 124.132197804 -145.867802196 9.16817882736e-23 -1.76284129345e-26 -1.15773664617e-25 1.17108361401e-25 -98.6381638114 4.26405255197e-18
0.45074364266 0.073291258264 304.895760801 -45.3179916794 -301.508218166 0 -368.417728129 0 -367.733590064 368.417728129 -90 -45.3179916794 66.9095099637 80.8124988373 124.118708459 -145.881291541 8.03284219181e-26 -1.28016988232e-29 -8.49443907886e-29 8.59038352599e-29 -98.5558990226 3.77155368029e-21
0.45074364266 0.073612024636 305.704545155 -45.2274235891 -302.3396839 0 -369.132029019 0 -368.916099887 369.132029019 -90 -45.2274235891 66.7923451189 80.6646997801 124.112096124 -145.887903876 2.01083351298e-28 -2.65811431854e-32 -1.77855946347e-31 1.79831737439e-31 -98.5158742458 9.5045534743e-24
0.45982909511 0.050150991358 178.098046046 -52.6152493115 -170.148587215 0 -244.470320733 0 -238.350565165 244.470320733 -90 -52.6152493115 74.3217335187 91.0616334306 125.310374861 -144.689625139 60.747407312 -0.0782081791744 -0.252917498572 0.26473344634 -107.184860194 967976.072424
0.45982909511 0.052842226144 184.295608512 -51.7784862383 -176.851960265 0 -250.049199023 0 -249.604478495 250.049199023 -90 -51.7784862383 73.1972387574 89.6603333275 125.288388448 -144.711611552 49.879259001 -0.063423247578 -0.214091882104 0.223311728122 -106.349309178 839792.622487
0.45982909511 0.05553346093 196.5625725 -50.106991781 -190.052667537 0 -261.076271482 0 -260.604467579 261.076271482 -90 -50.106991781 71.0236039449 86.9205301386 125.215086983 -144.784913017 26.7622389489 -0.0330786217439 -0.12258148889 0.126974404377 -104.795474987 505917.156333
0.45982909511 0.058224695716 208.557866805 -48.4764962247 -202.833283541 0 -271.834079746 0 -271.334919566 271.834079746 -90 -48.4764962247 69.0007962047 84.3278419419 125.101334104 -144.898665896 7.60865520363 -0.00917072768691 -0.0367525648711 0.037879889709 -103.463222484 158277.165078
0.45982909511 0.060915930501 219.595343641 -47.0283427107 -214.491812602 0 -281.719886701 0 -281.780086171 281.719886701 -90 -47.0283427107 67.2280740997 82.0449329759 124.98507909 -145.01492091 0.436540210583 -0.000499654634542 -0.00221598579236 0.00227166005977 -102.384010016 10275.2381977
0.45982909511 0.063299251501 229.518223237 -45.7826842528 -224.900406295 0 -290.601277027 0 -290.779295593 290.601277027 -90 -45.7826842528 65.7008707314 80.0795851558 124.880853343 -145.119146657 0.0887446941456 -8.61826223548e-05 -0.000414820092175 0.000423683337794 -101.519369684 2299.90759402
0.45982909511 0.065285352334 237.878126789 -44.7695004132 -233.624030841 0 -298.079726615 0 -298.090340603 298.079726615 -90 -44.7695004132 64.4556957747 78.4787754336 124.793468123 -145.206531877 0.0218175364222 -1.72903368443e-05 -8.87229907774e-05 9.03927038996e-05 -100.858386131 609.462756567
0.45982909511 0.066940436362 244.690631632 -43.9651666716 -240.706357784 0 -304.171183939 0 -304.047240389 304.171183939 -90 -43.9651666716 63.4648261549 77.2061364148 124.722493323 -145.277506677 0.0046001953569 -3.00675850648e-06 -1.62139870581e-05 1.64904855407e-05 -100.359824017 136.162777288
0.45982909511 0.068319673052 250.257204912 -43.3205568073 -246.477717628 0 -309.146715884 0 -308.914332217 309.146715884 -90 -43.3205568073 62.6689982556 76.1848875804 124.664625281 -145.335374719 0.000626062779822 -3.39388544789e-07 -1.90431178891e-06 1.93432293976e-06 -99.9764008636 19.4083390044
0.45982909511 0.06946903696 254.81736966 -42.800098273 -251.196102756 0 -313.22132139 0 -312.901283648 313.22132139 -90 -42.800098273 62.0252186341 75.3593787691 124.617280334 -145.382719666 3.59023071702e-05 -1.61020718763e-08 -9.33850070279e-08 9.47632286613e-08 -99.677013626 1.15697871697
0.45982909511 0.070426840216 258.561844787 -42.3773982084 -255.064553701 0 -316.56604972 0 -316.174937364 316.56604972 -90 -42.3773982084 61.5014960191 74.6882531148 124.578429743 -145.421570257 6.57164454564e-07 -2.43324623318e-10 -1.45030330531e-09 1.47057620229e-09 -99.440414684 0.0218612159705
0.45982909511 0.071225009597 261.643003168 -42.032476425 -258.2439527 0 -319.317486312 0 -318.868563573 319.317486312 -90 -42.032476425 61.0735336116 74.1401433168 124.546469376 -145.453530624 5.77194395523e-09 -1.76543940964e-12 -1.07602499447e-11 1.09041363162e-11 -99.2516279188 0.000196930350434
0.45982909511 0.071890150747 264.183059168 -41.7499546683 -260.862563246 0 -321.585133321 0 -321.089049191 321.585133321 -90 -41.7499546683 60.7225700751 73.6908605171 124.520121662 -145.479878338 3.68702711887e-11 -9.33399544434e-15 -5.79325679737e-14 5.86797966659e-14 -99.09981818 1.28334216619e-06
0.45982909511 0.07244443504 266.280437331 -41.5178343574 -263.023216242 0 -323.457138208 0 -322.922473698 323.457138208 -90 -41.5178343574 60.4339219655 73.3214970392 124.498362414 -145.501637586 1.23321738137e-19 -2.58423300174e-23 -1.62801617167e-22 1.64840206326e-22 -98.9769721563 4.36092645576e-15
0.45982909511 0.072906338616 268.01472017 -41.3266482033 -264.80877092 0 -325.004741325 0 -324.438436616 325.004741325 -90 -41.3266482033 60.1959704058 73.0171084557 124.480365833 -145.519634167 8.38840658439e-23 -1.45584636821e-26 -9.28299815216e-26 9.3964820724e-26 -98.8770524619 3.00013510659e-18
0.45982909511 0.073291258264 269.450498574 -41.1688566636 -266.286297974 0 -326.285736404 0 -325.693424648 326.285736404 -90 -41.1688566636 59.9994384307 72.7657747486 124.465462746 -145.534537254 7.72543178724e-26 -1.11112838672e-29 -7.15501388663e-29 7.24078923717e-29 -98.7954383499 2.78592424902e-21
0.45982909511 0.073612024636 265.614381388 -40.4775160753 -262.51164317 0 -321.410881042 0 -326.733441417 321.410881042 -90 -40.4775160753 58.8992378724 71.4674328848 124.506747593 -145.493252407 1.45009235707e-28 -1.72946076941e-32 -1.12261914564e-31 1.13586486991e-31 -98.771102416 5.25919832268e-24
0.45982909511 0.073879329947 254.718924017 -39.0036014792 -251.715016087 0 -308.204660197 0 -327.596070897 308.204660197 -90 -39.0036014792 56.4896441098 68.6466373539 124.623363312 -145.376636688 5.51790751674e-31 -5.22676861389e-35 -3.37316579966e-34 3.41342036869e-34 -98.8080153515 1.79005693529e-26
0.46891454755 0.050150991358 159.082259246 -47.1110649427 -151.946409531 0 -217.322240711 0 -211.89742712 217.322240711 -90 -47.1110649427 65.3758311809 80.5827156875 125.792459307 -144.207540693 59.2807642968 -0.0683290361979 -0.220382388992 0.230732003635 -107.226830605 753400.534859
0.46891454755 0.052842226144 164.493734268 -46.3979644329 -157.797196555 0 -222.258391347 0 -221.858075527 222.258391347 -90 -46.3979644329 64.4611947921 79.423752914 125.759935252 -144.240064748 48.5148814668 -0.0552655233198 -0.185779912781 0.193844719046 -106.413356885 650469.390927
0.46891454755 0.05553346093 175.205049519 -44.9733757777 -169.320954475 0 -232.013995983 0 -231.591632918 232.013995983 -90 -44.9733757777 62.6930415076 77.1565104123 125.667136987 -144.332863013 25.6691542587 -0.0284661343226 -0.104710767092 0.108517685041 -104.898593721 385194.403801
0.46891454755 0.058224695716 185.680511928 -43.5845898164 -180.48215195 0 -241.529924102 0 -241.085591886 241.529924102 -90 -43.5845898164 61.0477721518 75.0102765735 125.536851398 -144.463148602 7.12046172603 -0.00770756187202 -0.030606495957 0.0315624002828 -103.596519144 117402.376747
0.46891454755 0.060915930501 195.32228037 -42.3523011557 -190.667975319 0 -250.274474513 0 -250.327523252 250.274474513 -90 -42.3523011557 59.6064991946 73.1213744855 125.406736424 -144.593263576 0.406315515096 -0.000418138624189 -0.00183252741897 0.00187966056771 -102.539341784 7565.54508216
0.46891454755 0.063299251501 203.993969254 -41.2927086776 -199.766555973 0 -258.131693484 0 -258.291754382 258.131693484 -90 -41.2927086776 58.365137511 71.4958067705 125.29042968 -144.70957032 0.0854046544271 -7.47340233087e-05 -0.000354480961956 0.000362277465671 -101.690436003 1747.72774183