TITLE = "Electromagnetic Field"
VARIABLES = X Y E ER EI EvR EvI EvR' EvI' Ev EvPhase EpR EpI Ep EpPhase EpToEvPhaseShift elConductivity Jr Ji J Jphase QJ
ZONE N=252, E=220, F=FEPOINT, ET=QUADRILATERAL
0.88530477428 0.022593587434 3.15337786282 -0.797972624371 -3.05074280077 0 -3.49236084743 0 -3.50245352234 3.49236084743 -90 -0.797972624371 0.441618046659 0.912023469205 151.038758994 -118.961241006 1.68028281773e-90 -5.35536842405e-100 -2.04742007008e-99 2.11630070003e-99 -104.658263661 8.35419137475e-90
0.8849440521 0.022421848413 3.14363106104 -0.79672328564 -3.04099435392 0 -3.48168542056 0 -3.48210089438 3.48168542056 -90 -0.79672328564 0.440691066638 0.910481549914 151.051751113 -118.948248887 1.78745356008e-90 -5.68648728702e-100 -2.17024933769e-99 2.24351161651e-99 -104.681266961 8.82898014637e-90
0.88458917355 0.022238341288 3.12366115161 -0.794102450133 -3.02103602746 0 -3.45980555888 0 -3.45974383047 3.45980555888 -90 -0.794102450133 0.438769531415 0.907258202453 151.077830137 -118.922169863 2.00413194367e-90 -6.35401878455e-100 -2.41706679713e-99 2.49918956395e-99 -104.727549539 9.7740273297e-90
0.88423429331 0.022054833284 3.10289980661 -0.791276298059 -3.00031121769 0 -3.43704603676 0 -3.43729906343 3.43704603676 -90 -0.791276298059 0.436734819069 0.903800600385 151.104086521 -118.895913479 2.31820648521e-90 -7.32227658639e-100 -2.7760062865e-99 2.87095273901e-99 -104.774370118 1.115326542e-89
0.88388350081 0.021863627976 3.0812442435 -0.788214631839 -2.97872156252 0 -3.41329266152 0 -3.4135007113 3.41329266152 -90 -0.788214631839 0.434571099003 0.90007465755 151.130498839 -118.869501161 2.66195085141e-90 -8.37429362999e-100 -3.16443054827e-99 3.27336378578e-99 -104.821703464 1.26317707129e-89
0.88353635546 0.021665880414 3.05873613925 -0.784925405732 -2.95630803991 0 -3.38859138566 0 -3.38853052948 3.38859138566 -90 -0.784925405732 0.43228334575 0.896089742711 151.157057272 -118.842942728 3.10648228474e-90 -9.72957610787e-100 -3.66389430814e-99 3.79087991443e-99 -104.869545356 1.45214716294e-89
0.88318920985 0.02146813271 3.03538407468 -0.781406549532 -2.93308005907 0 -3.3629513742 0 -3.36346537402 3.3629513742 -90 -0.781406549532 0.429871315131 0.891843924953 151.183738936 -118.816261064 3.66519899193e-90 -1.14253383322e-99 -4.28810083955e-99 4.43770164466e-99 -104.917867857 1.68758270286e-89
0.88285034973 0.021256500347 3.0108975565 -0.777576736336 -2.9087586464 0 -3.33605023558 0 -3.33599774553 3.33605023558 -90 -0.777576736336 0.427291589183 0.88724502032 151.210495978 -118.789504022 4.07026991668e-90 -1.26256866113e-99 -4.72271407935e-99 4.88856955039e-99 -104.966596859 1.84441229855e-89
0.88251155597 0.02104476232 2.98557625548 -0.773512430699 -2.88363354767 0 -3.30821998679 0 -3.308411095 3.30821998679 -90 -0.773512430699 0.424586439125 0.88238039852 151.237343373 -118.762656627 4.63610559927e-90 -1.43038880673e-99 -5.33163012382e-99 5.52017187671e-99 -105.015772495 2.06468999254e-89
0.88217658036 0.020827033446 2.95941614177 -0.769209119098 -2.85770180021 0 -3.27945592449 0 -3.27972088447 3.27945592449 -90 -0.769209119098 0.421754124279 0.877245263742 151.264267485 -118.735732515 5.33136527127e-90 -1.63561356556e-99 -6.07594205532e-99 6.29224213202e-99 -105.065382493 2.33357947178e-89
0.88184674423 0.020601594113 2.93235393128 -0.76464603354 -2.83090345457 0 -3.2496875985 0 -3.2496318532 3.2496875985 -90 -0.76464603354 0.418784143935 0.871816355696 151.291242177 -118.708757823 6.12660449649e-90 -1.86816992852e-99 -6.91540272382e-99 7.16329976439e-99 -105.115391207 2.63203370035e-89
0.88151690833 0.020376154931 2.90447104018 -0.759840688944 -2.80331812479 0 -3.21900498876 0 -3.21943525326 3.21900498876 -90 -0.759840688944 0.415686863967 0.866114012778 151.318251951 -118.681748049 7.14979580296e-90 -2.16615985346e-99 -7.99072954489e-99 8.27913162435e-99 -105.165781582 3.01374063737e-89
0.88119529916 0.020139129741 2.87553570662 -0.754725424757 -2.77472404185 0 -3.18715071807 0 -3.18717372011 3.18715071807 -90 -0.754725424757 0.412426676221 0.860061783237 151.345243103 -118.654756897 7.94551782502e-90 -2.39117556151e-99 -8.79052427858e-99 9.10994258771e-99 -105.216466275 3.2838294072e-89
0.88087501252 0.019900317695 2.84578841567 -0.749362804096 -2.74535343336 0 -3.15439135714 0 -3.1544971126 3.15439135714 -90 -0.749362804096 0.409037923774 0.853731032462 151.37223549 -118.62776451 9.06443906873e-90 -2.70824176236e-99 -9.92026574071e-99 1.02833003852e-98 -105.267491998 3.66697015615e-89
0.88055757377 0.019657733715 2.81523087534 -0.743749337626 -2.71520905417 0 -3.12072856188 0 -3.12106656429 3.12072856188 -90 -0.743749337626 0.405519507716 0.84711816648 151.399210512 -118.600789488 1.04641296266e-89 -3.10291777221e-99 -1.13267567589e-98 1.17440855367e-98 -105.318834367 4.14432892922e-89
0.88024740942 0.019405914838 2.79967500064 -0.74085840711 -2.699872021 0 -3.10358853868 0 -3.08594645866 3.10358853868 -90 -0.74085840711 0.403716517678 0.843716899221 151.412675712 -118.587324288 1.10314041348e-89 -3.25869581841e-99 -1.187549683e-98 1.23144842927e-98 -105.344552806 4.32330662328e-89
0.88021762846 0.019444097246 2.80495537846 -0.742378630574 -2.70493043238 0 -3.10945642789 0 -3.09245484475 3.10945642789 -90 -0.742378630574 0.404525995517 0.845439123877 151.413802723 -118.586197277 1.90750626011e-17 -5.0426544499e-26 -1.83734134035e-25 1.90528392634e-25 -105.347156352 7.50391472295e-17
0.88022310369 0.01943707741 2.80450484831 -0.74224890996 -2.70449884446 0 -3.10895577015 0 -3.09125814572 3.10895577015 -90 -0.74224890996 0.404456925683 0.845292167876 151.413706543 -118.586293457 1.0409887059e-17 -2.75177169857e-26 -1.00263541816e-25 1.03971162183e-25 -105.346934282 4.09513121866e-17
0.88022766638 0.019431227547 2.8035886086 -0.741985102645 -2.70362112613 0 -3.1079375864 0 -3.09026094211 3.1079375864 -90 -0.741985102645 0.404316460273 0.844993309202 151.41351095 -118.58648905 4.62209414274e-21 -1.01745389584e-29 -3.70731845983e-29 3.84440146093e-29 -105.346482635 1.81699423166e-20
0.88023146862 0.019426352661 2.80282510783 -0.741765281055 -2.70288972266 0 -3.10708913599 0 -3.08942997068 3.10708913599 -90 -0.741765281055 0.404199413335 0.844744279602 151.413347977 -118.586652023 2.68116839656e-24 -4.91571821743e-33 -1.79120060066e-32 1.85742898861e-32 -105.346106233 1.05337497688e-23
0.88023463716 0.019422290256 2.80218887991 -0.741582108868 -2.70228023981 0 -3.10638211933 0 -3.08873751633 3.10638211933 -90 -0.741582108868 0.404101879521 0.844536768427 151.413212181 -118.586787819 7.01317105912e-28 -1.07101736606e-36 -3.90268804127e-36 4.04698062089e-36 -105.345792544 2.75397530158e-27
0.88023727761 0.019418904919 2.80165870546 -0.741429473945 -2.70177235107 0 -3.10579295605 0 -3.08816048636 3.10579295605 -90 -0.741429473945 0.404020604975 0.844363851713 151.413099029 -118.586900971 7.24568032446e-32 -9.21742887608e-41 -3.3588106389e-40 3.48298993091e-40 -105.345531122 2.84411387848e-31
0.88023947798 0.019416083804 2.8012169047 -0.741302284286 -2.70134912044 0 -3.10530199923 0 -3.08767963858 3.10530199923 -90 -0.741302284286 0.403952878794 0.844219761066 151.413004742 -118.586995258 2.33907815988e-36 -2.47885197991e-45 -9.0330272466e-45 9.36697861512e-45 -105.345313261 9.17834443942e-36
0.88024131162 0.019413732875 2.80084874435 -0.741196296897 -2.70099643431 0 -3.1048928763 0 -3.0872789395 3.1048928763 -90 -0.741196296897 0.403896441986 0.844099689837 151.412926175 -118.587073825 2.00984738113e-41 -1.77445965091e-50 -6.4662827144e-50 6.70533512923e-50 -105.345131703 7.88422815945e-41
0.88024283966 0.019411773768 2.80054194982 -0.741107977102 -2.70070253433 0 -3.10455194695 0 -3.08694502865 3.10455194695 -90 -0.741107977102 0.403849412617 0.843999633765 151.412860706 -118.587139294 3.84409699508e-47 -2.82758886452e-56 -1.03040909903e-55 1.06850152046e-55 -105.3449804 1.50760476028e-46
0.88024411302 0.019410141178 2.80028629114 -0.741034379209 -2.7004576207 0 -3.10426784299 0 -3.08666677315 3.10426784299 -90 -0.741034379209 0.403810222292 0.843916255797 151.41280615 -118.58719385 1.34514970773e-53 -8.24379047357e-63 -3.00416940961e-62 3.1152262607e-62 -105.34485431 5.2744598669e-53
0.88024517416 0.019408780687 2.8000732448 -0.740973049036 -2.70025352825 0 -3.10403109254 0 -3.08643489602 3.10403109254 -90 -0.740973049036 0.403777564285 0.843846775675 151.412760689 -118.587239311 5.88529688825e-61 -3.00519815508e-70 -1.09515090099e-69 1.13563535321e-69 -105.344749233 2.30730096363e-60
0.88024605844 0.019407646945 2.79989570797 -0.740921941533 -2.70008345279 0 -3.10383380249 0 -3.08624166692 3.10383380249 -90 -0.740921941533 0.403750349694 0.84378887663 151.412722806 -118.587277194 2.05934896619e-69 -8.76183449584e-79 -3.19299847239e-78 3.31103257036e-78 -105.344661668 8.07246611964e-69
0.88024679534 0.019406702159 2.79974776188 -0.740879352636 -2.69994172437 0 -3.10366939553 0 -3.08608064368 3.10366939553 -90 -0.740879352636 0.403727671162 0.84374062817 151.412691238 -118.587308762 1.01945476989e-78 -3.61412655892e-88 -1.31707154488e-87 1.36575860318e-87 -105.344588695 3.99571578147e-78
0.88052193788 0.019704876798 2.83730814926 -0.748505094794 -2.73679697035 0 -3.14511473186 0 -3.12907878257 3.14511473186 -90 -0.748505094794 0.408317761513 0.852633139926 151.387047553 -118.612952447 2.47591629569e-10 -7.92415353439e-19 -2.89734826607e-18 3.00375582684e-18 -105.296146601 9.96595618379e-10
0.88052837886 0.019696355959 2.82682617859 -0.746483979102 -2.72648244898 0 -3.13355844382 0 -3.127630429 3.13355844382 -90 -0.746483979102 0.407075994849 0.850264212273 151.395331249 -118.604668751 9.28758579488e-11 -2.97248555934e-19 -1.08684490303e-18 1.12676019953e-18 -105.311908433 3.73840073298e-10
0.88053374634 0.019689255259 2.82008139287 -0.7451408858 -2.71985707583 0 -3.12611843402 0 -3.12642353217 3.12611843402 -90 -0.7451408858 0.406261358188 0.84869503993 151.400210635 -118.599789365 9.35219614943e-18 -2.4810086586e-26 -9.05404978503e-26 9.38782398185e-26 -105.321153968 3.71549455377e-17
0.88053821925 0.01968333801 2.81916122765 -0.744876880466 -2.71897533149 0 -3.12509595064 0 -3.12541782966 3.12509595064 -90 -0.744876880466 0.40612061915 0.848395877078 151.400020867 -118.599979133 4.12014947489e-21 -9.10169967563e-30 -3.32157906736e-29 3.44402369877e-29 -105.320714075 1.63556332661e-20
0.88054194667 0.019678406968 2.81839445682 -0.744656893682 -2.71824057431 0 -3.12424391845 0 -3.12457977528 3.12424391845 -90 -0.744656893682 0.40600334414 0.848146593815 151.399862748 -118.600137252 2.37177600928e-24 -4.36370543286e-33 -1.59251208688e-32 1.65121607927e-32 -105.320347463 9.40873170008e-24
0.88054505285 0.019674297767 2.81775550254 -0.7444735833 -2.71762829551 0 -3.12353391549 0 -3.1238814184 3.12353391549 -90 -0.7444735833 0.40590561998 0.84793887065 151.399731 -118.600269 6.15917791473e-28 -9.43864522539e-37 -3.44461384434e-36 3.57158890476e-36 -105.320041932 2.44189888838e-27
0.88054764133 0.019670873433 2.81722305747 -0.744320833264 -2.71711807819 0 -3.12294226507 0 -3.12329946944 3.12294226507 -90 -0.744320833264 0.405824186875 0.847765777347 151.39962122 -118.60037878 6.30399810634e-32 -8.04698271681e-41 -2.93672951306e-40 3.04498298426e-40 -105.319787304 2.49799674932e-31
0.88054979841 0.019668019821 2.8167793624 -0.74419354715 -2.71669290502 0 -3.12244923327 0 -3.12281452213 3.12244923327 -90 -0.74419354715 0.405756328251 0.847621538933 151.399529746 -118.600470254 2.01674646923e-36 -2.14449772905e-45 -7.82627877322e-45 8.11477189558e-45 -105.319575107 7.98783070096e-36
0.88055159596 0.019665641811 2.81640962478 -0.744087479521 -2.71633860146 0 -3.12203838264 0 -3.12241040687 3.12203838264 -90 -0.744087479521 0.405699781179 0.847501344737 151.399453522 -118.600546478 1.71966808601e-41 -1.52335318523e-50 -5.55941645461e-50 5.76434929255e-50 -105.319398266 6.80857072687e-41
0.88055309393 0.019663660136 2.81610151619 -0.743999092865 -2.71604335394 0 -3.12169601388 0 -3.12207364901 3.12169601388 -90 -0.743999092865 0.405652659933 0.847401186202 151.399390005 -118.600609995 3.27247902686e-47 -2.41513669585e-56 -8.81394904568e-56 9.13885109838e-56 -105.319250893 1.29525967183e-46
0.88055434224 0.01966200874 2.81584475861 -0.743925438484 -2.71579731359 0 -3.12141070616 0 -3.12179302089 3.12141070616 -90 -0.743925438484 0.405613392572 0.847317721945 151.39933708 -118.60066292 1.14432573268e-53 -7.03634959839e-63 -2.56790863459e-62 2.66256611188e-62 -105.319128085 4.52834999016e-53
0.88055538249 0.019660632577 2.81563080067 -0.743864061984 -2.71559228631 0 -3.12117295715 0 -3.12155916673 3.12117295715 -90 -0.743864061984 0.405580670837 0.847248170797 151.399292975 -118.600707025 5.02352561636e-61 -2.57372326433e-70 -9.39291389044e-70 9.73914274378e-70 -105.319025735 1.98768014353e-60
0.88055624937 0.019659485775 2.81545250027 -0.743812915129 -2.71542142799 0 -3.12097483066 0 -3.12136428996 3.12097483066 -90 -0.743812915129 0.405553402677 0.847190211684 151.399256225 -118.600743775 1.7821361486e-69 -7.60820949122e-79 -2.77674480244e-78 2.87909045484e-78 -105.318940448 7.05173723808e-69
0.88055697177 0.019658530106 2.8153039313 -0.743770295903 -2.71527906041 0 -3.12080974146 0 -3.12120189371 3.12080974146 -90 -0.743770295903 0.405530681048 0.847141916073 151.399225589 -118.600774411 9.10334221896e-79 -3.23873156997e-88 -1.18211053214e-87 1.22567509183e-87 -105.318869352 3.6031137699e-78
0.88084008973 0.019948000054 2.85234093228 -0.751229471361 -2.75163613816 0 -3.16167154797 0 -3.1625764176 3.16167154797 -90 -0.751229471361 0.410035409812 0.855847414509 151.373494806 -118.626505194 2.1838102328e-10 -7.01142172508e-19 -2.56756724839e-18 2.66157910351e-18 -105.270433234 8.87129703711e-10
0.88084640182 0.019939381743 2.85179339721 -0.751073473733 -2.75111115374 0 -3.16106320746 0 -3.1611159412 3.16106320746 -90 -0.751073473733 0.409952053719 0.85567055006 151.373389545 -118.626610455 1.1913697013e-10 -3.82505549877e-19 -1.40072692914e-18 1.45201475313e-18 -105.270187568 4.83970371679e-10
0.8808516619 0.019932199818 2.85067983918 -0.750756216965 -2.75004345677 0 -3.1598259855 0 -3.15989894122 3.1598259855 -90 -0.750756216965 0.409782528726 0.855310855205 151.37317548 -118.62682452 6.85350051107e-18 -1.83153742053e-26 -6.70639226835e-26 6.95199510159e-26 -105.269687903 2.77949900893e-17
0.88085604529 0.01992621488 2.84975192147 -0.750491860759 -2.74915375151 0 -3.15879501991 0 -3.1588848188 3.15879501991 -90 -0.750491860759 0.409641268403 0.855011135982 151.372997121 -118.627002879 2.94434998692e-21 -6.55200825832e-30 -2.39909154104e-29 2.4869518542e-29 -105.269271465 1.19303206933e-20
0.88085969812 0.019921227432 2.84897869058 -0.750271581073 -2.74841236075 0 -3.15793591962 0 -3.15803974744 3.15793591962 -90 -0.750271581073 0.409523558876 0.854761388574 151.372848506 -118.627151494 1.65401780444e-24 -3.06537987293e-33 -1.12241666945e-32 1.16352265704e-32 -105.268924397 6.69676567259e-24
0.88086274215 0.019917071225 2.84833435334 -0.75008802628 -2.74779455449 0 -3.15722002705 0 -3.15733554248 3.15722002705 -90 -0.75008802628 0.409425472559 0.854553278304 151.372724676 -118.627275324 4.19919106636e-28 -6.48191906023e-37 -2.37339567686e-36 2.46031723959e-36 -105.268635151 1.69903474002e-27
0.88086527884 0.019913607719 2.84779741605 -0.749935071132 -2.74727972473 0 -3.15662346158 0 -3.15674871981 3.15662346158 -90 -0.749935071132 0.409343736852 0.854379860771 151.372621497 -118.627378503 4.18318248362e-32 -5.37854333678e-41 -1.96935882722e-40 2.04148530396e-40 -105.268394105 1.69153616487e-31
0.88086739275 0.019910721465 2.84734998372 -0.749807615038 -2.74685071407 0 -3.1561263408 0 -3.15625971129 3.1561263408 -90 -0.749807615038 0.409275626726 0.854235353312 151.372535519 -118.627464481 1.30491153786e-36 -1.39761781934e-45 -5.11731780042e-45 5.30474148226e-45 -105.268193215 5.27389531934e-36
0.88086915433 0.019908316252 2.84697713285 -0.749701405837 -2.74649321377 0 -3.15571208393 0 -3.15585221132 3.15571208393 -90 -0.749701405837 0.409218870164 0.854114935025 151.372463872 -118.627536128 1.08997383736e-41 -9.72524357216e-51 -3.56081914259e-50 3.69123814795e-50 -105.268025794 4.4033546424e-41
0.88087062233 0.019906311909 2.84666642008 -0.749612899339 -2.74619529266 0 -3.15536686587 0 -3.15551263289 3.15536686587 -90 -0.749612899339 0.409171573202 0.854014587564 151.372404179 -118.627595821 2.04822022053e-47 -1.52254234927e-56 -5.57465329275e-56 5.77883211121e-56 -105.267886288 8.27196665013e-47
0.88087184565 0.019904641623 2.8464075057 -0.749539147451 -2.7459470375 0 -3.15507919842 0 -3.15522965449 3.15507919842 -90 -0.749539147451 0.409132160921 0.853930968665 151.372354427 -118.627645573 7.16547921455e-54 -4.43787661278e-63 -1.62490865179e-62 1.68442160038e-62 -105.267770012 2.89334761785e-53
0.88087286509 0.019903249717 2.84619174678 -0.749477688991 -2.74574016097 0 -3.15483947896 0 -3.15499384128 3.15483947896 -90 -0.749477688991 0.409099317992 0.853861287824 151.372312969 -118.627687031 3.19059180582e-61 -1.64653169869e-70 -6.02887741403e-70 6.24967492162e-70 -105.267673113 1.28828547145e-60
0.88087371462 0.019902089796 2.84601193469 -0.749426471842 -2.74556775086 0 -3.15463969845 0 -3.15479733208 3.15463969845 -90 -0.749426471842 0.409071947589 0.853803218288 151.372278435 -118.627721565 1.18311181377e-69 -5.08787542386e-79 -1.86307479014e-78 1.93129830173e-78 -105.267592386 4.77810885814e-69
0.88087442256 0.019901123195 2.84586209957 -0.749383792789 -2.74542408384 0 -3.15447322384 0 -3.15463357558 3.15447322384 -90 -0.749383792789 0.409049139996 0.853754829194 151.372249651 -118.627750349 6.63906544759e-79 -2.37952960759e-88 -8.71439208687e-88 9.03342716047e-88 -105.267525101 2.68279249578e-78
0.88116109992 0.020187337317 2.88214079174 -0.756593931769 -2.78106086293 0 -3.19448837726 0 -3.19531700754 3.19448837726 -90 -0.756593931769 0.41342751433 0.862181378015 151.346422569 -118.653577431 1.80772276032e-10 -5.84670205737e-19 -2.14893398182e-18 2.22705129863e-18 -105.219245991 7.50475880311e-10
0.88116728124 0.020178624077 2.88158886632 -0.756437782524 -2.7805313583 0 -3.19387523728 0 -3.19384496982 3.19387523728 -90 -0.756437782524 0.413343878981 0.862004247371 151.346323985 -118.653676015 9.86196716043e-11 -3.18964746919e-19 -1.17234327478e-18 1.21495989854e-18 -105.219013829 4.09419444642e-10
0.88117243233 0.020171363043 2.88046638093 -0.756120217072 -2.77945447001 0 -3.19262825603 0 -3.19261833431 3.19262825603 -90 -0.756120217072 0.413173786014 0.861644010832 151.346123496 -118.653876504 5.05235109995e-18 -1.36041585471e-26 -5.00011753298e-26 5.18188304785e-26 -105.218541623 2.09518249977e-17
0.88117672491 0.020165312182 2.87953102427 -0.755855602576 -2.77855710616 0 -3.19158915821 0 -3.19159618155 3.19158915821 -90 -0.755855602576 0.413032052044 0.861343839117 151.345956444 -118.654043556 2.1106947181e-21 -4.73270670984e-30 -1.73951234627e-29 1.80274484299e-29 -105.218148058 8.74639025109e-21
0.88118030206 0.020160269797 2.8787515865 -0.755635105468 -2.77780932583 0 -3.19072327249 0 -3.19074441762 3.19072327249 -90 -0.755635105468 0.412913946661 0.861093712167 151.345817257 -118.654182743 1.15320825958e-24 -2.15364233593e-33 -7.91587182902e-33 8.20360989556e-33 -105.217820059 4.77569986937e-24
0.88118328302 0.02015606781 2.87810207755 -0.755451369034 -2.77718619579 0 -3.19000172613 0 -3.19003463536 3.19000172613 -90 -0.755451369034 0.412815530343 0.860885285154 151.345701279 -118.654298721 2.85280922596e-28 -4.43764899374e-37 -1.63111232609e-36 1.69040091864e-36 -105.217546698 1.18078746866e-27
0.88118576715 0.020152566154 2.87756083976 -0.755298263834 -2.77666693878 0 -3.18940045935 0 -3.18944316471 3.18940045935 -90 -0.755298263834 0.412733520569 0.860711605267 151.345604636 -118.654395364 2.75245635849e-32 -3.56648286523e-41 -1.310910445e-40 1.35855973584e-40 -105.217318871 1.13870418171e-31
0.88118783726 0.020149648108 2.87710981908 -0.755170681553 -2.7762342343 0 -3.18889941573 0 -3.18895028269 3.18889941573 -90 -0.755170681553 0.412665181422 0.860566877874 151.345524105 -118.654475895 8.33361162129e-37 -8.99536171668e-46 -3.30637659092e-45 3.42655713159e-45 -105.217129003 3.44623628467e-36
0.88118956235 0.020147216402 2.87673397182 -0.75506436595 -2.77587364983 0 -3.1884818831 0 -3.18853955457 3.1884818831 -90 -0.75506436595 0.412608233266 0.860446274859 151.345457004 -118.654542996 6.79275189633e-42 -6.10830444264e-51 -2.24519815478e-50 2.32680674756e-50 -105.216970776 2.80806100876e-41
0.88119099993 0.020145189981 2.87642076899 -0.754975771887 -2.77557316548 0 -3.18813394286 0 -3.18819728603 3.18813394286 -90 -0.754975771887 0.412560777379 0.860345774779 151.345401091 -118.654598909 1.25795096101e-47 -9.42434735911e-57 -3.46406522325e-56 3.5899768258e-56 -105.216838919 5.19878226617e-47
0.88119219791 0.020143501297 2.87615977508 -0.754901946127 -2.77532276988 0 -3.187844002 0 -3.1879120657 3.187844002 -90 -0.754901946127 0.412521232121 0.860262027647 151.345354494 -118.654645506 4.40772761421e-54 -2.75128048493e-63 -1.01128177358e-62 1.04803935146e-62 -105.216729024 1.82121549138e-53
0.88119319623 0.02014209406 2.8759422773 -0.754840424989 -2.77511410382 0 -3.1876023815 0 -3.18767438434 3.1876023815 -90 -0.754840424989 0.412488277685 0.860192238633 151.34531567 -118.65468433 1.99988994715e-61 -1.04010611798e-70 -3.82312663801e-70 3.96208544573e-70 -105.216637451 8.26201512404e-61
0.88119402816 0.020140921362 2.87576104349 -0.75478916048 -2.77494022945 0 -3.1874010469 0 -3.18747631815 3.1874010469 -90 -0.75478916048 0.412460817454 0.86013408471 151.345283305 -118.654716695 7.82352330507e-70 -3.39036953824e-79 -1.24622736296e-78 1.29152197856e-78 -105.216561117 3.23193404896e-69
0.88119472143 0.020139944114 2.8756100058 -0.754746438744 -2.77479532463 0 -3.1872332576 0 -3.18731126426 3.1872332576 -90 -0.754746438744 0.412437932974 0.860085621499 151.345256346 -118.654743654 4.88201748064e-79 -1.76297817964e-88 -6.48061412738e-88 6.71613433062e-88 -105.216497522 2.01701525415e-78
0.88148344723 0.020424867509 2.91112648318 -0.76171037533 -2.8097069323 0 -3.22639765732 0 -3.22763850488 3.22639765732 -90 -0.76171037533 0.416690725015 0.868236084443 151.31935141 -118.68064859 1.56177076832e-10 -5.08469713008e-19 -1.87524256544e-18 1.94295570215e-18 -105.168403324 6.61119537297e-10
0.88148949513 0.020416062993 2.91057035263 -0.761554129797 -2.8091730859 0 -3.22577992405 0 -3.22615563239 3.22577992405 -90 -0.761554129797 0.416606838143 0.868058749333 151.319259508 -118.680740492 8.52018477148e-11 -2.77393838122e-19 -1.02303189222e-18 1.05997255241e-18 -105.168184372 3.60671407595e-10
0.88149453504 0.020408725895 2.90943931011 -0.761236367052 -2.80808736285 0 -3.22452359568 0 -3.22491996666 3.22452359568 -90 -0.761236367052 0.416436232833 0.867698095282 151.319072612 -118.680927388 4.03600910516e-18 -1.09382714144e-26 -4.03376597666e-26 4.17944124284e-26 -105.167739034 1.70607971432e-17
0.88149873497 0.020402611648 2.90849681897 -0.760971586307 -2.80718263354 0 -3.22347670454 0 -3.22389028803 3.22347670454 -90 -0.760971586307 0.416294070998 0.867397573589 151.318916891 -118.681083109 1.65851522964e-21 -3.74290772756e-30 -1.38029779666e-29 1.43014543948e-29 -105.167367857 7.00493177269e-21
0.88150223492 0.020397516441 2.90771144378 -0.76075095125 -2.80642872346 0 -3.22260433307 0 -3.22303225183 3.22260433307 -90 -0.76075095125 0.416175609609 0.86714715577 151.31878714 -118.68121286 8.91668828775e-25 -1.67595370849e-33 -6.18052859627e-33 6.40373034238e-33 -105.167058493 3.76337536483e-24
0.88150515153 0.020393270436 2.90705698392 -0.760567098721 -2.80580048243 0 -3.22187737845 0 -3.22231724261 3.22187737845 -90 -0.760567098721 0.41607689602 0.86693848508 151.318679029 -118.681320971 2.17389000259e-28 -3.40328727733e-37 -1.25505114754e-36 1.30037584686e-36 -105.166800662 9.16956191657e-28
0.88150758205 0.020389732098 2.90651161549 -0.760413895512 -2.80527696157 0 -3.22127159937 0 -3.22172141562 3.22127159937 -90 -0.760413895512 0.415994637797 0.866764600674 151.318588946 -118.681411054 2.05576968233e-32 -2.68079678953e-41 -9.88604245233e-41 1.02430721146e-40 -105.166585782 8.66655046108e-32
0.88150960748 0.020386783483 2.9060571539 -0.760286231481 -2.80484070525 0 -3.22076679687 0 -3.22122490311 3.22076679687 -90 -0.760286231481 0.415926091625 0.866619702788 151.318513881 -118.681486119 6.10901124121e-37 -6.63615905497e-46 -2.44720899405e-45 2.53559048757e-45 -105.166406698 2.57418066245e-36
0.88151129534 0.020384326304 2.90567843895 -0.760179847549 -2.80447716069 0 -3.22034613154 0 -3.22081114958 3.22034613154 -90 -0.760179847549 0.415868970848 0.866498957469 151.318451335 -118.681548665 4.90199161794e-42 -4.43610591402e-51 -1.63588566202e-50 1.69496689786e-50 -105.166257458 2.06477542923e-41
0.88151270189 0.020382278655 2.90536284753 -0.760091196599 -2.80417421077 0 -3.21999558195 0 -3.22046635978 3.21999558195 -90 -0.760091196599 0.415821371175 0.86639833888 151.318399218 -118.681600782 8.98725466953e-48 -6.77589104716e-57 -2.49871599569e-56 2.58895922168e-56 -105.166133086 3.78442032856e-47
0.88151387401 0.020380572281 2.90509986437 -0.760017323551 -2.80392176179 0 -3.21970346798 0 -3.22017903838 3.21970346798 -90 -0.760017323551 0.415781706191 0.866314493139 151.318355782 -118.681644218 3.14725534686e-54 -1.9770069669e-63 -7.29059511319e-63 7.55389595659e-63 -105.166029426 1.32502563813e-53
0.88151485078 0.020379150302 2.90488071453 -0.759955763947 -2.80371139019 0 -3.21946004278 0 -3.21993960602 3.21946004278 -90 -0.759955763947 0.415748652595 0.866244623071 151.318319588 -118.681680412 1.44001387019e-61 -7.53714161177e-71 -2.77952865561e-70 2.87990730974e-70 -105.165943039 6.06214752306e-61
0.88151566475 0.02037796532 2.90469809448 -0.759904465592 -2.80353608515 0 -3.21925719376 0 -3.21974008083 3.21925719376 -90 -0.759904465592 0.415721108615 0.866186399495 151.318289423 -118.681710577 5.80657935163e-70 -2.53254954329e-79 -9.33993318176e-79 9.67719879329e-79 -105.165871041 2.44470944204e-69
0.88151634307 0.020376977835 2.90454590336 -0.75986171601 -2.80338998984 0 -3.2190881444 0 -3.21957381076 3.2190881444 -90 -0.75986171601 0.415698154558 0.866137878657 151.318264296 -118.681735704 3.87587070219e-79 -1.40881780353e-88 -5.19614536557e-88 5.38374402899e-88 -105.165811058 1.63246250036e-78
0.88181401502 0.020650820203 2.93905812972 -0.766516322801 -2.83734272628 0 -3.2571334277 0 -3.25789541917 3.2571334277 -90 -0.766516322801 0.419790701414 0.873940243267 151.292263966 -118.707736034 1.24462752918e-10 -4.07826610768e-19 -1.50928497247e-18 1.56341425681e-18 -105.117856919 5.3694398652e-10
0.88181993064 0.020641922872 2.93849792443 -0.766360027885 -2.83680466203 0 -3.25651125141 0 -3.25640164836 3.25651125141 -90 -0.766360027885 0.419706589375 0.873762757364 151.292178564 -118.707821436 6.79002015353e-11 -2.22488321145e-19 -8.23384915999e-19 8.52914949793e-19 -105.117651007 2.92927836144e-10
0.88182486032 0.02063450843 2.93735859589 -0.766042164525 -2.83571036198 0 -3.25524588815 0 -3.2551568998 3.25524588815 -90 -0.766042164525 0.419535526171 0.873401796497 151.292004883 -118.707995117 2.10871522042e-18 -5.74460883532e-27 -2.12425349673e-26 2.20055875262e-26 -105.117232187 9.0489280483e-18
0.88182896838 0.020628329728 2.93640919679 -0.765777298632 -2.83479848252 0 -3.25419146478 0 -3.2541196513 3.25419146478 -90 -0.765777298632 0.419392982255 0.873101017738 151.291860172 -118.708139828 1.12731676192e-21 -2.56048344306e-30 -9.47494383864e-30 9.81481808271e-30 -105.116883111 4.85191490788e-21
0.88183239177 0.02062318081 2.93561806318 -0.765556591741 -2.83403861238 0 -3.25331281452 0 -3.25325530658 3.25331281452 -90 -0.765556591741 0.419274202141 0.872850384773 151.291739594 -118.708260406 5.8847268018e-25 -1.11319272587e-33 -4.11929032753e-33 4.26705450901e-33 -105.116592169 2.53090106984e-24
0.8818352446 0.020618890044 2.9349588082 -0.765372679608 -2.83340540827 0 -3.25258063154 0 -3.25253503928 3.25258063154 -90 -0.765372679608 0.419175223272 0.872641535173 151.291639119 -118.708360881 1.39684095221e-28 -2.20086564138e-37 -8.14408975523e-37 8.43623259814e-37 -105.116349682 6.00379629324e-28
0.88183762195 0.020615314407 2.93440943998 -0.765219425792 -2.83287774777 0 -3.25197049127 0 -3.25193483091 3.25197049127 -90 -0.765219425792 0.419092743497 0.87246750062 151.291555402 -118.708444598 1.27866408709e-32 -1.67815180996e-41 -6.20974507609e-41 6.43250611011e-41 -105.116147596 5.49274140877e-32
0.88183960308 0.020612334709 2.93395164513 -0.76509171939 -2.83243804169 0 -3.25146205434 0 -3.25143466685 3.25146205434 -90 -0.76509171939 0.419024012649 0.872322477415 151.29148564 -118.70851436 3.68983371292e-37 -4.03402232405e-46 -1.49270727747e-45 1.5462563836e-45 -105.115979173 1.5842732117e-36
0.88184125402 0.020609851627 2.93357015634 -0.764985300718 -2.83207162622 0 -3.25103836461 0 -3.25101787022 3.25103836461 -90 -0.764985300718 0.418966738389 0.872201628359 151.291427509 -118.708572491 2.89234525029e-42 -2.63430281699e-51 -9.74759496711e-51 1.00972856265e-50 -105.115838811 1.2413719428e-41
0.8818426298 0.020607782392 2.93325225636 -0.764896621225 -2.83176628684 0 -3.25068529796 0 -3.25067054444 3.25068529796 -90 -0.764896621225 0.418919011122 0.872100923828 151.291379067 -118.708620933 5.23352446923e-48 -3.9711867371e-57 -1.46943683792e-56 1.52215251206e-56 -105.115721831 2.24552200213e-47
0.88184377628 0.02060605803 2.93298734185 -0.764822723038 -2.83151183919 0 -3.25039107815 0 -3.25038110968 3.25039107815 -90 -0.764822723038 0.418879238961 0.872017004875 151.291338701 -118.708661299 1.83843685075e-54 -1.16228576964e-63 -4.30078996223e-63 4.45507643155e-63 -105.115624345 7.88669223724e-54
0.88184473169 0.020604621061 2.93276657758 -0.764761141585 -2.83129979712 0 -3.25014589261 0 -3.25013991606 3.25014589261 -90 -0.764761141585 0.41884609549 0.871947072736 151.291305069 -118.708694931 8.5884860602e-62 -4.52424693638e-71 -1.67414455726e-70 1.73419971058e-70 -105.115543113 3.68416078132e-61