TITLE = Boundary data
VARIABLES =  "x0" "x1" "dp" "u" "v" "T" "EpR" "EpI" "rho" "H" "M" "xc0" "xc1" "xc2" "xc3" "xc4" "xc5" "xc6" "xc7" "xc8" "xc9" "xc10"
ZONE   T= "ZONE0 symmetry", N=185, E=184, F=FEPOINT, ET=LINESEG, SOLUTIONTIME=0.00000000000000e+00
+8.71000000000000e-01 +0.00000000000000e+00 +2.38320305601175e+01 +2.72730886853960e-05 -3.22008045228195e-17 +3.79817733107948e+02 +0.00000000000000e+00 +0.00000000000000e+00 +4.58961304337487e-02 +8.27438944342881e+04 +6.97756130910531e-08 +0.00000000000000e+00 +0.00000000000000e+00 +0.00000000000000e+00 +1.36566006662546e-31 +0.00000000000000e+00 +5.58004926985483e-13 +7.89999999999721e-01 +0.00000000000000e+00 +2.09999999999721e-01 +0.00000000000000e+00 +6.63092180953027e-41
+0.00000000000000e+00 +0.00000000000000e+00 +2.03862791525118e+01 +0.00000000000000e+00 +0.00000000000000e+00 +3.50000000000000e+02 -1.10250613584715e+00 +2.45076681051385e+00 +4.97720223654651e-02 +5.24770513704712e+04 +0.00000000000000e+00 +0.00000000000000e+00 +0.00000000000000e+00 +0.00000000000000e+00 +1.62490953175387e-34 +0.00000000000000e+00 +4.78075911583500e-14 +7.89999999999976e-01 +0.00000000000000e+00 +2.09999999999976e-01 +0.00000000000000e+00 +3.57255513695269e-44
+8.70999000000000e-01 +0.00000000000000e+00 +2.38314164571377e+01 +6.59638413057935e-05 -6.44558191542632e-17 +4.09987469028644e+02 +0.00000000000000e+00 +0.00000000000000e+00 +4.25187680252809e-02 +1.13458969253197e+05 +1.62540626558349e-07 +0.00000000000000e+00 +0.00000000000000e+00 +0.00000000000000e+00 +4.60613714009497e-29 +0.00000000000000e+00 +4.65973951922474e-12 +7.89999999997670e-01 +0.00000000000000e+00 +2.09999999997670e-01 +0.00000000000000e+00 +4.44292404986093e-38
+8.70997800000000e-01 +0.00000000000000e+00 +2.38296743430536e+01 +1.85201130130346e-04 -1.31188462870746e-16 +4.72615807929934e+02 +0.00000000000000e+00 +0.00000000000000e+00 +3.68844117176361e-02 +1.77600697062059e+05 +4.25784411016705e-07 +0.00000000000000e+00 +2.62477481449950e-49 +0.00000000000000e+00 +7.67477027049152e-25 +0.00000000000000e+00 +1.60676784503941e-10 +7.89999999919222e-01 +0.00000000000000e+00 +2.09999999920102e-01 +0.00000000000000e+00 +6.35907031907387e-33
+8.70996360000000e-01 +0.00000000000000e+00 +2.38269464806804e+01 +4.14331683851584e-04 -2.02095284951298e-16 +5.39970004463017e+02 +0.00000000000000e+00 +0.00000000000000e+00 +3.22835461867791e-02 +2.47315644140315e+05 +8.93265807105622e-07 +0.00000000000000e+00 +8.90544598945262e-43 +0.00000000000000e+00 +2.17413709871051e-21 +0.00000000000000e+00 +2.89334728289206e-09 +7.89999998553198e-01 +0.00000000000000e+00 +2.09999998553455e-01 +8.90439536599601e-47 +4.64069063089262e-29
+8.70994632000000e-01 +0.00000000000000e+00 +2.38232582435284e+01 +8.11729259679109e-04 -2.76471553983804e-16 +6.12391768278553e+02 +0.00000000000000e+00 +0.00000000000000e+00 +2.84656566004591e-02 +3.23303108793508e+05 +1.64794232396289e-06 +0.00000000000000e+00 +2.36363736565185e-37 +0.00000000000000e+00 +1.60728296526276e-18 +0.00000000000000e+00 +3.18505813138541e-08 +7.89999984074670e-01 +0.00000000000000e+00 +2.09999984074748e-01 +1.69623086862996e-41 +7.57175055475320e-26
+8.70992558400000e-01 +0.00000000000000e+00 +2.38185101778059e+01 +1.45803728815323e-03 -3.54750950837257e-16 +6.90783004889214e+02 +0.00000000000000e+00 +0.00000000000000e+00 +2.52353013639594e-02 +4.06888347965315e+05 +2.79586685099866e-06 +0.00000000000000e+00 +9.26823395400336e-33 +0.00000000000000e+00 +4.33405685918743e-16 +0.00000000000000e+00 +2.42372316581466e-07 +7.89999878813830e-01 +0.00000000000000e+00 +2.09999878813853e-01 +5.04539313594910e-37 +4.01443489763430e-23
+8.70990070080000e-01 +0.00000000000000e+00 +2.38124935457970e+01 +2.46381871323870e-03 -4.37150315946155e-16 +7.76056982198316e+02 +0.00000000000000e+00 +0.00000000000000e+00 +2.24623923607079e-02 +4.99447461746056e+05 +4.47224171662154e-06 +5.41712012487217e-45 +8.19731653468851e-29 +0.00000000000000e+00 +5.32699708606490e-14 +0.00000000000000e+00 +1.38367324480996e-06 +7.89999308163353e-01 +0.00000000000000e+00 +2.09999308163349e-01 +3.53563761292193e-33 +8.87159092313920e-21
+8.70987084100000e-01 +0.00000000000000e+00 +2.38049559720994e+01 +3.97526680179117e-03 -5.20417042793042e-16 +8.68672740884082e+02 +0.00000000000000e+00 +0.00000000000000e+00 +2.00674770294434e-02 +6.01873084279137e+05 +6.84298419459558e-06 +7.71615693291672e-40 +2.11674699487587e-25 +0.00000000000000e+00 +3.41856060092111e-12 +6.16555059101895e-50 +6.22982312584513e-06 +7.89996885087086e-01 +2.51474807360410e-49 +2.09996885086370e-01 +7.50156591334521e-30 +9.51056847521200e-19
+8.70983500920000e-01 +0.00000000000000e+00 +2.37956679256284e+01 +6.18545024384509e-03 -6.07153216591882e-16 +9.69120298741778e+02 +0.00000000000000e+00 +0.00000000000000e+00 +1.79874862458344e-02 +7.15070314465215e+05 +1.01131310407024e-05 +2.34407698755346e-35 +1.95860593591905e-22 +0.00000000000000e+00 +1.27593579774726e-10 +1.52726128632727e-44 +2.30160085718212e-05 +7.89988491945314e-01 +2.55009809525395e-44 +2.09988491918520e-01 +5.88117249188576e-27 +5.57919727471232e-17
+8.70979201100000e-01 +0.00000000000000e+00 +2.37843662955512e+01 +9.37689146824666e-03 -6.97358837342676e-16 +1.07867058281887e+03 +0.00000000000000e+00 +0.00000000000000e+00 +1.61606324309252e-02 +8.40837201430570e+05 +1.45766141459538e-05 +2.05729788539974e-31 +7.94080925587016e-20 +0.00000000000000e+00 +3.07981201857515e-09 +8.49295707138288e-40 +7.25351635385448e-05 +7.89963731201703e-01 +6.44387579982663e-40 +2.09963730554944e-01 +2.07227124987985e-24 +2.01683168140995e-15
+8.70974041320000e-01 +0.00000000000000e+00 +2.37706137345390e+01 +1.39561687382279e-02 -7.85829734617494e-16 +1.19913869463572e+03 +0.00000000000000e+00 +0.00000000000000e+00 +1.45370595839622e-02 +9.81698922847025e+05 +2.06384630756797e-05 +6.66648849488830e-28 +1.65951962917592e-17 +2.75001141515008e-48 +5.23807564648711e-08 +1.42408797552818e-35 +2.01188689135538e-04 +7.89899384964994e-01 +5.33951222045065e-36 +2.09899373965064e-01 +3.84458590644351e-22 +4.94608530321376e-14
+8.70967849580000e-01 +0.00000000000000e+00 +2.37538191156624e+01 +2.04631308259683e-02 -8.60422844084496e-16 +1.33179050655350e+03 +0.00000000000000e+00 +0.00000000000000e+00 +1.30890609386077e-02 +1.13970881554940e+06 +2.88007684756167e-05 +9.13517567736296e-25 +1.95601922368221e-15 +3.77246408384265e-43 +6.58175233584247e-07 +8.47791067343382e-32 +4.99672142576679e-04 +7.89749903948807e-01 +1.68937660851056e-32 +2.09749765732513e-01 +4.09932774050726e-20 +8.67798751435573e-13
+8.70960419500000e-01 +0.00000000000000e+00 +2.37334422633653e+01 +2.96177656370269e-02 -9.21138165743685e-16 +1.47749035175644e+03 +0.00000000000000e+00 +0.00000000000000e+00 +1.17982274265110e-02 +1.31666974298352e+06 +3.97011292935566e-05 +8.08102572682835e-17 +1.37993923207541e-13 +1.04443697899374e-43 +6.30322432025551e-06 +1.42996023066332e-33 +1.12379226002249e-03 +7.89435614096082e-01 +1.61705183512711e-34 +2.09434290419437e-01 +1.90654042861790e-23 +8.08102382055845e-17
+8.70951503400000e-01 +0.00000000000000e+00 +2.37092789812014e+01 +4.23629217282046e-02 -9.57567358739198e-16 +1.63670036979990e+03 +0.00000000000000e+00 +0.00000000000000e+00 +1.06502863988372e-02 +1.51433992240339e+06 +5.41454207379635e-05 +4.50131139461081e-15 +6.09826546710444e-12 +7.17196773553518e-39 +4.71091642183537e-05 +8.14475746815373e-30 +2.30810552484011e-03 +7.88827339112250e-01 +5.55199158440767e-31 +2.08817446192584e-01 +4.43515057366837e-21 +4.50130695946023e-15
+8.70940804080000e-01 +0.00000000000000e+00 +2.36817967725250e+01 +5.98591945594995e-02 -9.66240976119082e-16 +1.80834303447427e+03 +0.00000000000000e+00 +0.00000000000000e+00 +9.63822919771743e-03 +1.73381203706412e+06 +7.31325819859097e-05 +1.56956004191710e-13 +1.72185495526165e-10 +1.32855143598259e-34 +2.77459630756729e-04 +1.68028245539736e-26 +4.34283923502570e-03 +7.87718983674030e-01 +7.32195704854861e-28 +2.07660717287688e-01 +5.44053813354390e-19 +1.56955460137878e-13
+8.70927964890000e-01 +0.00000000000000e+00 +2.36522352205906e+01 +8.34359952474249e-02 -9.31546506599545e-16 +1.98699829664714e+03 +0.00000000000000e+00 +0.00000000000000e+00 +8.76723646770967e-03 +1.97413128322468e+06 +9.79665719565148e-05 +3.32658124900081e-12 +3.02684946313253e-09 +6.15424756756702e-31 +1.26855053714751e-03 +1.18200652665249e-23 +7.44030212533362e-03 +7.85778768761839e-01 +3.50911910426598e-25 +2.05512375542177e-01 +3.38228062348409e-17 +3.32654742618242e-12
+8.70912557870000e-01 +0.00000000000000e+00 +2.36216966564438e+01 +1.14851412634249e-01 -8.60422844084496e-16 +2.16186729851225e+03 +0.00000000000000e+00 +0.00000000000000e+00 +8.04544683677613e-03 +2.23349391410230e+06 +1.30674168746202e-04 +4.07571168579363e-11 +3.16942893381208e-08 +6.26111189602401e-28 +4.38812863063405e-03 +2.55711848712809e-21 +1.14858755837344e-02 +7.82523722980065e-01 +5.55709408557184e-23 +2.01602241029762e-01 +9.95624595175121e-16 +4.07561212307330e-11
+8.70894069440000e-01 +0.00000000000000e+00 +2.35897532728435e+01 +1.56468035714274e-01 -7.19910242530375e-16 +2.32112391650078e+03 +0.00000000000000e+00 +0.00000000000000e+00 +7.46683229175814e-03 +2.51157792553995e+06 +1.73756126048463e-04 +2.87793019133475e-10 +1.97827615746585e-07 +1.40196827623062e-25 +1.14596921942478e-02 +1.69923706704374e-19 +1.59413425900851e-02 +7.77502572861022e-01 +2.91106864610287e-21 +1.95096193951444e-01 +1.38190436070823e-14 +2.87779199918790e-10
+8.70871883330000e-01 +0.00000000000000e+00 +2.35543259059362e+01 +2.11542060432009e-01 -5.51642065360625e-16 +2.45985148326966e+03 +0.00000000000000e+00 +0.00000000000000e+00 +7.00258018976385e-03 +2.81103591583668e+06 +2.30013111805225e-04 +1.28151510700233e-09 +8.03162216865255e-07 +8.92752404312948e-24 +2.36227360071824e-02 +4.22355635402662e-18 +2.01924092572008e-02 +7.70572094165276e-01 +6.08155115121737e-20 +1.85611954845094e-01 +1.02148649309212e-13 +1.28141295406864e-09
+8.70845260000000e-01 +0.00000000000000e+00 +2.35126799399802e+01 +2.84922604270636e-01 -3.19189119579733e-16 +2.58145739702274e+03 +0.00000000000000e+00 +0.00000000000000e+00 +6.61339619454636e-03 +3.13936687601550e+06 +3.03406317670791e-04 +4.13523620195624e-09 +2.42003034708271e-06 +2.38335200693263e-22 +4.11718504051052e-02 +5.30106364813135e-17 +2.39055856719008e-02 +7.61782154992661e-01 +6.72896991116690e-19 +1.73137980629514e-01 +4.85063600417365e-13 +4.13475108467202e-09
+8.70813312000000e-01 +0.00000000000000e+00 +2.34620844053336e+01 +3.83632231704934e-01 +2.42861286636753e-17 +2.69201461857660e+03 +0.00000000000000e+00 +0.00000000000000e+00 +6.26720345641934e-03 +3.50730649918989e+06 +3.99641762310316e-04 +1.08581513326702e-08 +6.04005181805458e-06 +3.68891041542711e-21 +6.41877375196603e-02 +4.31430385964178e-16 +2.69536371315734e-02 +7.51163605261419e-01 +4.99915638958782e-18 +1.57688958319227e-01 +1.72825839410101e-12 +1.08564226378429e-08
+8.70774974400000e-01 +0.00000000000000e+00 +2.33993788874528e+01 +5.17578606870125e-01 +3.43475248243408e-16 +2.79723955136648e+03 +0.00000000000000e+00 +0.00000000000000e+00 +5.94208287381877e-03 +3.92737455190148e+06 +5.26457515876372e-04 +2.51007176342958e-08 +1.34645204373092e-05 +4.14089914354450e-20 +9.28382298016384e-02 +2.70103235089799e-15 +2.92507153360643e-02 +7.38691458437143e-01 +2.93881223930130e-17 +1.39206081703282e-01 +5.12413410561600e-12 +2.50955907697298e-08
+8.70728969280000e-01 +0.00000000000000e+00 +2.33190407285789e+01 +7.00838764853341e-01 +6.69603261727048e-16 +2.90251681440397e+03 +0.00000000000000e+00 +0.00000000000000e+00 +5.62273422748754e-03 +4.41391661412269e+06 +6.94138249949329e-04 +5.39387745422568e-08 +2.82848430716078e-05 +3.96174713499093e-19 +1.27370240443348e-01 +1.46664841768910e-14 +3.06658921229795e-02 +7.24330424454589e-01 +1.53971376045141e-16 +1.17605050258463e-01 +1.35351449354814e-11 +5.39252245764693e-08
+8.70673763140000e-01 +0.00000000000000e+00 +2.32089235193891e+01 +9.54670882679761e-01 +9.22872889219661e-16 +3.01428297778412e+03 +0.00000000000000e+00 +0.00000000000000e+00 +5.29659077970473e-03 +4.98405991164256e+06 +9.17014477747980e-04 +1.12707465564312e-07 +5.86973655892149e-05 +3.73579759872565e-18 +1.67993687668067e-01 +7.65426766065338e-14 +3.09669597373600e-02 +7.08106333984368e-01 +8.00997230041760e-16 +9.28740958296849e-02 +3.35180620139552e-11 +1.12673870154888e-07
+8.70607515760000e-01 +0.00000000000000e+00 +2.30437054752152e+01 +1.31507612424158e+00 +1.25247034965525e-15 +3.14341377488098e+03 +0.00000000000000e+00 +0.00000000000000e+00 +4.94928797157685e-03 +5.65994420477320e+06 +1.21710261330557e-03 +2.41606673730655e-07 +1.27879064622331e-04 +4.20719804362737e-17 +2.14654216023586e-01 +4.36189364617431e-13 +2.97239109563173e-02 +6.90234865798084e-01 +4.78052548983131e-15 +6.52586449440428e-02 +8.19250938262782e-11 +2.41524307624866e-07
+8.70528018920000e-01 +0.00000000000000e+00 +2.27853295468746e+01 +1.84895260196401e+00 +1.54043444666740e-15 +3.31714404283033e+03 +0.00000000000000e+00 +0.00000000000000e+00 +4.55350579051836e-03 +6.47625788161089e+06 +1.62688626074059e-03 +5.90656212878015e-07 +3.32204160527074e-04 +8.51440543766808e-16 +2.66343995518466e-01 +3.52004412516084e-12 +2.60262575530378e-02 +6.71482908431360e-01 +4.46183365177394e-14 +3.58134530241832e-02 +2.15655627850349e-10 +5.90436991739152e-07
+8.70432622700000e-01 +0.00000000000000e+00 +2.24445284689057e+01 +2.64459636069063e+00 +1.70002900645727e-15 +3.62873972855716e+03 +0.00000000000000e+00 +0.00000000000000e+00 +4.04199115177119e-03 +7.48139155223608e+06 +2.13919741624673e-03 +2.20406560394094e-06 +1.48050653679604e-03 +1.00539976559430e-13 +3.15260419657875e-01 +8.33929430028313e-11 +1.80536343187616e-02 +6.55117420866582e-01 +1.59984714511147e-12 +1.00836104887778e-02 +7.55936026402808e-10 +2.20322457458441e-06
+8.70318147240000e-01 +0.00000000000000e+00 +2.21238612431084e+01 +3.74452998600830e+00 +1.76941794549634e-15 +4.10675262614703e+03 +0.00000000000000e+00 +0.00000000000000e+00 +3.51294532237605e-03 +8.51220535243210e+06 +2.81797666985686e-03 +1.06397825419846e-05 +9.54115705852059e-03 +4.10544241567650e-11 +3.34681657059592e-01 +3.96215506730351e-09 +9.91591151417814e-03 +6.44289730580516e-01 +1.50822849546362e-10 +1.55026422210879e-03 +2.87720181049925e-09 +1.06327513078331e-05
+8.70180776690000e-01 +0.00000000000000e+00 +2.18946365192142e+01 +5.13563462265064e+00 +1.70696790036118e-15 +4.55192436319326e+03 +0.00000000000000e+00 +0.00000000000000e+00 +3.11456785554141e-03 +9.74577593759778e+06 +3.74068073890888e-03 +3.37238083698420e-05 +3.77570651827932e-02 +3.68765701034815e-09 +3.34982534424984e-01 +6.95503645870074e-08 +5.98874693798284e-03 +6.20851455650647e-01 +4.52583821176787e-09 +3.52750186852568e-04 +7.37137601846659e-09 +3.36386731344866e-05
+8.70015932030000e-01 +0.00000000000000e+00 +2.16971596032495e+01 +6.83656384957849e+00 +1.46410661372443e-15 +4.84748071056671e+03 +0.00000000000000e+00 +0.00000000000000e+00 +2.85792728672738e-03 +1.10873842739256e+07 +4.83099930993853e-03 +6.38026449760774e-05 +8.05233908930982e-02 +4.66101912246573e-08 +3.29226249562485e-01 +3.50511599082918e-07 +4.34011857788360e-03 +5.85634841243453e-01 +3.03654099633241e-08 +1.47794433128084e-04 +1.23218607688395e-08 +6.33628359150379e-05
+8.69818118430000e-01 +0.00000000000000e+00 +2.14497984191039e+01 +8.94996182467818e+00 +1.17267306976032e-15 +5.06892987984669e+03 +0.00000000000000e+00 +0.00000000000000e+00 +2.65844954217681e-03 +1.25704834240693e+07 +6.13328719998188e-03 +9.69588059116913e-05 +1.31839662226677e-01 +2.56764812703712e-07 +3.21182164165782e-01 +1.04397914444774e-06 +3.38540074496202e-03 +5.43318733323994e-01 +1.07413663963776e-07 +8.01219267617313e-05 +1.72111687544520e-08 +9.55334371218219e-05
+8.69580742120000e-01 +0.00000000000000e+00 +2.11308568833140e+01 +1.16396127263191e+01 +9.08995101411847e-16 +5.25488886300168e+03 +0.00000000000000e+00 +0.00000000000000e+00 +2.48343123069641e-03 +1.42474820679372e+07 +7.72943581905854e-03 +1.32889561632113e-04 +1.90026385128787e-01 +9.58961743639594e-07 +3.11648844167153e-01 +2.43505169062253e-06 +2.71364874149097e-03 +4.95296587899024e-01 +2.79963430602779e-07 +4.87549402808514e-05 +2.20634811961077e-08 +1.29193521286051e-04
+8.69295890540000e-01 +0.00000000000000e+00 +2.07368577391654e+01 +1.50929867162045e+01 +7.00828284294630e-16 +5.42166162609121e+03 +0.00000000000000e+00 +0.00000000000000e+00 +2.32125937156886e-03 +1.61510925263668e+07 +9.70111819326352e-03 +1.71900817964847e-04 +2.53886489769820e-01 +2.87321150265490e-06 +3.00979567904535e-01 +4.95307455888236e-06 +2.19322480148646e-03 +4.42565391510539e-01 +6.09932302142292e-07 +3.15243776769878e-05 +2.68895484110500e-08 +1.63437710064568e-04
+8.68954068650000e-01 +0.00000000000000e+00 +2.02625971197160e+01 +1.95084803497287e+01 +5.20417042793042e-16 +5.57736775744697e+03 +0.00000000000000e+00 +0.00000000000000e+00 +2.16790320205558e-03 +1.82930711965768e+07 +1.21215698691679e-02 +2.14735799877903e-04 +3.21833282457681e-01 +7.45449007715559e-06 +2.89506204965537e-01 +9.22930507913461e-06 +1.77042346564439e-03 +3.86439493506780e-01 +1.17438959161809e-06 +2.11240045974549e-05 +3.16476409106347e-08 +1.96845967493490e-04
+8.68543882380000e-01 +0.00000000000000e+00 +1.97001460697572e+01 +2.50804546060461e+01 +3.33066907387547e-16 +5.72646402433806e+03 +0.00000000000000e+00 +0.00000000000000e+00 +2.02297834351664e-03 +2.06551874278039e+07 +1.50493373258420e-02 +2.62867960971001e-04 +3.91603197773727e-01 +1.73817452687751e-05 +2.77647195349145e-01 +1.61395649819354e-05 +1.42031084444107e-03 +3.28789062566121e-01 +2.05030238709593e-06 +1.44975446234088e-05 +3.62292870090449e-08 +2.27260119046186e-04
+8.68051658850000e-01 +0.00000000000000e+00 +1.90429502403482e+01 +3.19627180857710e+01 +3.88578058618805e-16 +5.87111965738208e+03 +0.00000000000000e+00 +0.00000000000000e+00 +1.88838487922569e-03 +2.31729967509924e+07 +1.85154403670023e-02 +3.18854385237700e-04 +4.60128947325166e-01 +3.69972800946002e-05 +2.65947011224918e-01 +2.67570194307022e-05 +1.13080404803754e-03 +2.72145375857375e-01 +3.27690830094071e-06 +1.01527740291961e-05 +4.04419265515329e-08 +2.51782735484905e-04
+8.67460990630000e-01 +0.00000000000000e+00 +1.82900540821483e+01 +4.02087034259474e+01 +3.88578058618805e-16 +6.01134691054689e+03 +0.00000000000000e+00 +0.00000000000000e+00 +1.76751227287018e-03 +2.57213412541818e+07 +2.25066749050314e-02 +3.86305593688320e-04 +5.23683157498217e-01 +7.19920967149886e-05 +2.55058073375922e-01 +4.20734901850290e-05 +8.95957042760450e-04 +2.19582925975728e-01 +4.79838502976379e-06 +7.27491999568276e-06 +4.40232155205562e-08 +2.67397598543019e-04
+8.66752188750000e-01 +0.00000000000000e+00 +1.74462483449242e+01 +4.97071630716463e+01 +3.46944695195361e-16 +6.14446845908959e+03 +0.00000000000000e+00 +0.00000000000000e+00 +1.66432446055671e-03 +2.81183946514769e+07 +2.69547500514937e-02 +4.68431338504244e-04 +5.78458257355936e-01 +1.27093531829630e-04 +2.45643977466841e-01 +6.23566452757446e-05 +7.12313041401729e-04 +1.74243210586377e-01 +6.42780496644282e-06 +5.37887243511198e-06 +4.67330317983449e-08 +2.72506623400628e-04
+8.65901626500000e-01 +0.00000000000000e+00 +1.65164601516767e+01 +6.01398805478135e+01 +3.33066907387547e-16 +6.26442857558303e+03 +0.00000000000000e+00 +0.00000000000000e+00 +1.58224533987646e-03 +3.01631821334480e+07 +3.17363687103529e-02 +5.63949315571731e-04 +6.21515075984544e-01 +2.01170985184217e-04 +2.38218788581343e-01 +8.62341548044889e-05 +5.76644215691279e-04 +1.38557435476565e-01 +7.89919827079990e-06 +4.15711071303977e-06 +4.84986494241797e-08 +2.68596478662800e-04
+8.64880951800000e-01 +0.00000000000000e+00 +1.54987848454324e+01 +7.10249008923107e+01 +3.67761376907083e-16 +6.36288365206664e+03 +0.00000000000000e+00 +0.00000000000000e+00 +1.52272591903896e-03 +3.17094435063468e+07 +3.66970462786639e-02 +6.62442557225595e-04 +6.51854084631778e-01 +2.83045567737239e-04 +2.32965744880338e-01 +1.10264866232967e-04 +4.84027272405757e-04 +1.13367855647914e-01 +9.00879021944650e-06 +3.40245311270477e-06 +4.94790483457682e-08 +2.60073853987596e-04
+8.63656142160000e-01 +0.00000000000000e+00 +1.43820254222715e+01 +8.18937616210083e+01 +2.22044604925031e-16 +6.43387261802552e+03 +0.00000000000000e+00 +0.00000000000000e+00 +1.48396225642077e-03 +3.27352819900561e+07 +4.17031176194497e-02 +7.47198453710472e-04 +6.70898421453173e-01 +3.55544131749414e-04 +2.29653772152488e-01 +1.30302444477740e-04 +4.26502813003663e-04 +9.75239431219218e-02 +9.71813547840861e-06 +2.96355199060827e-06 +4.99552678094806e-08 +2.51583786738894e-04
+8.62390527940000e-01 +0.00000000000000e+00 +1.33213284137534e+01 +9.10807242692817e+01 +1.87350135405495e-16 +6.47313482572252e+03 +0.00000000000000e+00 +0.00000000000000e+00 +1.46384497996310e-03 +3.32687150153886e+07 +4.60222436498525e-02 +7.99727700625855e-04 +6.80442872687631e-01 +4.00938826670482e-04 +2.27987645747866e-01 +1.42433136212728e-04 +3.97681126540670e-04 +8.95695933909250e-02 +1.00718041126721e-05 +2.75164578499564e-06 +5.01462528211145e-08 +2.46233787377919e-04
+8.61124913730000e-01 +0.00000000000000e+00 +1.23445034270331e+01 +9.86765806882969e+01 +3.33066907387547e-16 +6.49349870460791e+03 +0.00000000000000e+00 +0.00000000000000e+00 +1.45367183268709e-03 +3.35362238497888e+07 +4.96630097188663e-02 +8.28703895413443e-04 +6.85129437185309e-01 +4.26067754762202e-04 +2.27167565740000e-01 +1.49038162312918e-04 +3.83494659658348e-04 +8.56594454279608e-02 +1.02436515246998e-05 +2.64919624404477e-06 +5.02257502532752e-08 +2.43304101063892e-04
+8.59859299510000e-01 +0.00000000000000e+00 +1.14449821751104e+01 +1.05080996719346e+02 +1.97758476261356e-16 +6.50475372378689e+03 +0.00000000000000e+00 +0.00000000000000e+00 +1.44805229764353e-03 +3.36816620747759e+07 +5.27714056455996e-02 +8.45264123502436e-04 +6.87646913274409e-01 +4.40450193474423e-04 +2.26726434062418e-01 +1.52786954221232e-04 +3.75854198707681e-04 +8.35576757270514e-02 +1.03351087563958e-05 +2.59449040861424e-06 +5.02631639433250e-08 +2.41641603886869e-04
+8.58593685300000e-01 +0.00000000000000e+00 +1.06184632162060e+01 +1.10580526684313e+02 +5.89805981832114e-17 +6.51200019081708e+03 +0.00000000000000e+00 +0.00000000000000e+00 +1.44440116349361e-03 +3.37745508373316e+07 +5.54558626164804e-02 +8.56144279090151e-04 +6.89242307494074e-01 +4.49907039782355e-04 +2.26446642823637e-01 +1.55240182672191e-04 +3.71001376829366e-04 +8.22251998432568e-02 +1.03926127715157e-05 +2.55990402240166e-06 +5.02842991953896e-08 +2.40554159565271e-04
+8.57328071080000e-01 +0.00000000000000e+00 +9.86108545639557e+00 +1.15369314906070e+02 +1.31838984174237e-16 +6.51760741094055e+03 +0.00000000000000e+00 +0.00000000000000e+00 +1.44156298398670e-03 +3.38459986199073e+07 +5.77952045808523e-02 +8.64681353527252e-04 +6.90462928825444e-01 +4.57330824458532e-04 +2.26232447488463e-01 +1.57159754264756e-04 +3.67282860633856e-04 +8.12054446324741e-02 +1.04363651241181e-05 +2.53348593022854e-06 +5.02991633562292e-08 +2.39704110516837e-04
+8.56062456860000e-01 +0.00000000000000e+00 +9.16854193414025e+00 +1.19580908945747e+02 +1.63064006741820e-16 +6.52259419432796e+03 +0.00000000000000e+00 +0.00000000000000e+00 +1.43904989320704e-03 +3.39091283077724e+07 +5.98479007734237e-02 +8.72356905155337e-04 +6.91537336399495e-01 +4.64007262715552e-04 +2.26043809909222e-01 +1.58881498335931e-04 +3.64007068700937e-04 +8.03076225345215e-02 +1.04747523219417e-05 +2.51027774913976e-06 +5.03116436890557e-08 +2.38943080138542e-04
+8.54796842650000e-01 +0.00000000000000e+00 +8.53606423046364e+00 +1.23312010383783e+02 +1.38777878078145e-16 +6.52737493681419e+03 +0.00000000000000e+00 +0.00000000000000e+00 +1.43666496834731e-03 +3.39692158916996e+07 +6.16589821856028e-02 +8.79786127271776e-04 +6.92556822773491e-01 +4.70470520533345e-04 +2.25864723284346e-01 +1.60544213185280e-04 +3.60897343217771e-04 +7.94554960392951e-02 +1.05111074048519e-05 +2.48830510589569e-06 +5.03232099053876e-08 +2.38209962938685e-04
+8.53531228430000e-01 +0.00000000000000e+00 +7.95861683355595e+00 +1.26636673427590e+02 +2.51534904016637e-16 +6.53211034703321e+03 +0.00000000000000e+00 +0.00000000000000e+00 +1.43433122842577e-03 +3.40283379901557e+07 +6.32643960421364e-02 +8.87211680791109e-04 +6.93556651976559e-01 +4.76931587641741e-04 +2.25689001521549e-01 +1.62202739072670e-04 +3.57846755849978e-04 +7.86196095736915e-02 +1.05466755956829e-05 +2.46681076771831e-06 +5.03343670162662e-08 +2.37480344114271e-04
+8.52265614220000e-01 +0.00000000000000e+00 +7.43115228324241e+00 +1.29614216378652e+02 +3.33066907387547e-16 +6.53686046759208e+03 +0.00000000000000e+00 +0.00000000000000e+00 +1.43201976087542e-03 +3.40872115234989e+07 +6.46936146018127e-02 +8.94727805888366e-04 +6.94549353477342e-01 +4.83472137917832e-04 +2.25514441769306e-01 +1.63877873888841e-04 +3.54816923381660e-04 +7.77894866987654e-02 +1.05819275772266e-05 +2.44551942861910e-06 +5.03452980185932e-08 +2.36745521206606e-04
+8.51000000000000e-01 +0.00000000000000e+00 +6.94903300688068e+00 +1.32293402891795e+02 +2.39391839684799e-16 +6.54164830757897e+03 +0.00000000000000e+00 +0.00000000000000e+00 +1.42971892339128e-03 +3.41461045146139e+07 +6.59711380519706e-02 +9.02372904672346e-04 +6.95539556166702e-01 +4.90125421321128e-04 +2.25340228037432e-01 +1.65577965482243e-04 +3.51793486982159e-04 +7.69612521716933e-02 +1.06170335703150e-05 +2.42432784627987e-06 +5.03560534909343e-08 +2.36002128245412e-04
+8.49734390000000e-01 +0.00000000000000e+00 +6.50993432918053e+00 +1.34704125200590e+02 +2.37657116208823e-16 +6.54648406820951e+03 +0.00000000000000e+00 +0.00000000000000e+00 +1.42742361944115e-03 +3.42051354021845e+07 +6.71121228815448e-02 +9.10165773558688e-04 +6.96529200094370e-01 +4.96907701867478e-04 +2.25166016649387e-01 +1.67307045467094e-04 +3.48770346481779e-04 +7.61332781700121e-02 +1.06520574923779e-05 +2.40319263128937e-06 +5.03666464841774e-08 +2.35248602085480e-04
+8.48215658000000e-01 +0.00000000000000e+00 +6.03465319084793e+00 +1.37287103449047e+02 +3.27862736959617e-16 +6.55234967277225e+03 +0.00000000000000e+00 +0.00000000000000e+00 +1.42467559944829e-03 +3.42761406777044e+07 +6.83237111736331e-02 +9.19715539127116e-04 +6.97715688643071e-01 +5.05219446046222e-04 +2.24957023468504e-01 +1.69420710274532e-04 +3.45143693931407e-04 +7.51403352073254e-02 +1.06939551442553e-05 +2.37790891356625e-06 +5.03791094738082e-08 +2.34331048552849e-04
+8.46436691060000e-01 +0.00000000000000e+00 +5.53814121706803e+00 +1.39962753922540e+02 +2.41126563160776e-16 +6.55931125462597e+03 +0.00000000000000e+00 +0.00000000000000e+00 +1.42146088902299e-03 +3.43595865889721e+07 +6.95646565026630e-02 +9.31190221146550e-04 +6.99104439376379e-01 +5.15206943681905e-04 +2.24712216113158e-01 +1.71952957205645e-04 +3.40895165729905e-04 +7.39777205162132e-02 +1.07428469819105e-05 +2.34838622762707e-06 +5.03933047389303e-08 +2.33237079972543e-04
+8.44397194520000e-01 +0.00000000000000e+00 +5.03739081622255e+00 +1.42646119860247e+02 +1.56125112837913e-17 +6.56741522772746e+03 +0.00000000000000e+00 +0.00000000000000e+00 +1.41777747751949e-03 +3.44556219091006e+07 +7.07914383784482e-02 +9.44743090509374e-04 +7.00694988474148e-01 +5.27003443340260e-04 +2.24431577783404e-01 +1.74933578134716e-04 +3.36023673373345e-04 +7.26456092273709e-02 +1.07986208986696e-05 +2.31466068433076e-06 +5.04089744344028e-08 +2.31957039161471e-04
+8.42103091910000e-01 +0.00000000000000e+00 +4.54810892914330e+00 +1.45262588785635e+02 +4.07660016854550e-17 +6.57669118767907e+03 +0.00000000000000e+00 +0.00000000000000e+00 +1.41363282316458e-03 +3.45641205397069e+07 +7.19661338737592e-02 +9.60518083988918e-04 +7.02481744430018e-01 +5.40733725924165e-04 +2.24115974931978e-01 +1.78389307566197e-04 +3.30542989848669e-04 +7.11484246043662e-02 +1.08609555851495e-05 +2.27687581110480e-06 +5.04257452374467e-08 +2.30483669168329e-04
+8.39565269290000e-01 +0.00000000000000e+00 +4.08297499561393e+00 +1.47755912471117e+02 +8.23993651088983e-17 +6.58715576249422e+03 +0.00000000000000e+00 +0.00000000000000e+00 +1.40904134430754e-03 +3.46847356415219e+07 +7.30603861590646e-02 +9.78656479893714e-04 +7.04454965764682e-01 +5.56519738596017e-04 +2.23766985754063e-01 +1.82345250334797e-04 +3.24478709610252e-04 +6.94940215530193e-02 +1.09293539599783e-05 +2.23525883758993e-06 +5.04431471047030e-08 +2.28811693855969e-04
+8.36798099320000e-01 +0.00000000000000e+00 +3.65083195200268e+00 +1.50090204927830e+02 +2.39391839684799e-16 +6.59881750303197e+03 +0.00000000000000e+00 +0.00000000000000e+00 +1.40402173993217e-03 +3.48169648180846e+07 +7.40563138013573e-02 +9.99305459672331e-04 +7.06601934346364e-01 +5.74487846354976e-04 +2.23386693981452e-01 +1.86826708340401e-04 +3.17864644479445e-04 +6.76927060151653e-02 +1.10031846664329e-05 +2.19009319482499e-06 +5.04606397726828e-08 +2.26937259670886e-04
+8.33817880950000e-01 +0.00000000000000e+00 +3.25670777421714e+00 +1.52248452111011e+02 +2.14238349283136e-16 +6.61168221959762e+03 +0.00000000000000e+00 +0.00000000000000e+00 +1.39859444944443e-03 +3.49602173632857e+07 +7.49456466972869e-02 +1.02262808662202e-03 +7.08908149828822e-01 +5.94777297768793e-04 +2.22977478135389e-01 +1.91861278340954e-04 +3.10739170854287e-04 +6.57562350005627e-02 +1.10817248409526e-05 +2.14169112731763e-06 +5.04776419156549e-08 +2.24857308029534e-04
+8.30641348170000e-01 +0.00000000000000e+00 +2.90237294595294e+00 +1.54228695277900e+02 +1.30104260698261e-17 +6.62575558785392e+03 +0.00000000000000e+00 +0.00000000000000e+00 +1.39277997690360e-03 +3.51139202789482e+07 +7.57277442013765e-02 +1.04880801033410e-03 +7.11358449619859e-01 +6.17544322211248e-04 +2.22541816682930e-01 +1.97480389251488e-04 +3.03142055395182e-04 +6.36968852462492e-02 +1.11641471095421e-05 +2.09037489836466e-06 +5.04935329861607e-08 +2.22568658228954e-04