TITLE = Boundary data
VARIABLES =  "x0" "x1" "dp" "u" "v" "T" "EpR" "EpI" "rho" "H" "M" "xc0" "xc1" "xc2" "xc3" "xc4" "xc5" "xc6" "xc7" "xc8" "xc9" "xc10"
ZONE   T= "ZONE0 symmetry", N=185, E=184, F=FEPOINT, ET=LINESEG, SOLUTIONTIME=0.00000000000000e+00
+8.71000000000000e-01 +0.00000000000000e+00 +3.49163009849911e+01 +4.24336157661197e-05 +4.60948553632212e-16 +3.78865601776271e+02 +0.00000000000000e+00 +0.00000000000000e+00 +2.77957079561468e-02 +8.17761503635772e+04 +1.08696698969063e-07 +0.00000000000000e+00 +0.00000000000000e+00 +0.00000000000000e+00 +1.44039750331665e-31 +0.00000000000000e+00 +5.18990163214721e-13 +7.89999999999740e-01 +0.00000000000000e+00 +2.09999999999741e-01 +0.00000000000000e+00 +6.49611069993697e-41
+0.00000000000000e+00 +0.00000000000000e+00 +2.05073435007063e+01 +0.00000000000000e+00 +0.00000000000000e+00 +3.50000000000000e+02 -1.03627451215632e+00 +2.37628271202017e+00 +2.99452573360843e-02 +5.24770513704712e+04 +0.00000000000000e+00 +0.00000000000000e+00 +0.00000000000000e+00 +0.00000000000000e+00 +2.09487351101788e-34 +0.00000000000000e+00 +4.78075911583501e-14 +7.89999999999976e-01 +0.00000000000000e+00 +2.09999999999976e-01 +0.00000000000000e+00 +4.37758887276193e-44
+8.70999000000000e-01 +0.00000000000000e+00 +3.49154638335372e+01 +1.00908644709681e-04 +8.96201515776518e-16 +4.08142789233486e+02 +0.00000000000000e+00 +0.00000000000000e+00 +2.58018394409313e-02 +1.11577933595593e+05 +2.49198028893984e-07 +0.00000000000000e+00 +0.00000000000000e+00 +0.00000000000000e+00 +4.25490325021109e-29 +0.00000000000000e+00 +4.12968099607482e-12 +7.89999999997935e-01 +0.00000000000000e+00 +2.09999999997935e-01 +0.00000000000000e+00 +3.75265303312684e-38
+8.70997800000000e-01 +0.00000000000000e+00 +3.49130397894804e+01 +2.76988285726039e-04 +1.76139484941995e-15 +4.69005881789873e+02 +0.00000000000000e+00 +0.00000000000000e+00 +2.24535058396545e-02 +1.73887284629109e+05 +6.39180020969755e-07 +0.00000000000000e+00 +1.33578997927182e-49 +0.00000000000000e+00 +6.04842873271677e-25 +0.00000000000000e+00 +1.34425467357631e-10 +7.89999999932325e-01 +0.00000000000000e+00 +2.09999999933250e-01 +0.00000000000000e+00 +4.49585412981726e-33
+8.70996360000000e-01 +0.00000000000000e+00 +3.49091663764874e+01 +6.10225640299665e-04 +2.59774840527527e-15 +5.34629781978308e+02 +0.00000000000000e+00 +0.00000000000000e+00 +1.96973928880300e-02 +2.41756493259324e+05 +1.32188892190735e-06 +0.00000000000000e+00 +3.99200895112479e-43 +0.00000000000000e+00 +1.60178559570041e-21 +0.00000000000000e+00 +2.36271282257839e-09 +7.89999998818506e-01 +0.00000000000000e+00 +2.09999998818781e-01 +3.90390810215716e-47 +3.04153998385679e-29
+8.70994632000000e-01 +0.00000000000000e+00 +3.49038757730834e+01 +1.18663740056271e-03 +3.36839930947797e-15 +6.05294223867816e+02 +0.00000000000000e+00 +0.00000000000000e+00 +1.73978110019691e-02 +3.15805199291288e+05 +2.42246006930201e-06 +0.00000000000000e+00 +1.02007737160687e-37 +0.00000000000000e+00 +1.16027440427762e-18 +0.00000000000000e+00 +2.58253603395111e-08 +7.89999987087277e-01 +0.00000000000000e+00 +2.09999987087362e-01 +7.16389916548755e-42 +4.84826981261508e-26
+8.70992558400000e-01 +0.00000000000000e+00 +3.48970456065539e+01 +2.12487714919559e-03 +4.03453312425306e-15 +6.81869779956607e+02 +0.00000000000000e+00 +0.00000000000000e+00 +1.54439617607817e-02 +3.97312268191664e+05 +4.09964678851539e-06 +0.00000000000000e+00 +4.04742308909667e-33 +0.00000000000000e+00 +3.14739716619997e-16 +0.00000000000000e+00 +1.97007194488197e-07 +7.89999901496389e-01 +0.00000000000000e+00 +2.09999901496416e-01 +2.15445984810043e-37 +2.58619253541435e-23
+8.70990070080000e-01 +0.00000000000000e+00 +3.48884023934466e+01 +3.58685376360735e-03 +4.54280710271426e-15 +7.65291837761937e+02 +0.00000000000000e+00 +0.00000000000000e+00 +1.37604248429545e-02 +4.87668866471658e+05 +6.55369683926739e-06 +1.53349854254685e-45 +3.74277552599916e-29 +0.00000000000000e+00 +3.95969456152177e-14 +0.00000000000000e+00 +1.13454859076428e-06 +7.89999432725685e-01 +0.00000000000000e+00 +2.09999432725685e-01 +1.57580978316465e-33 +5.86266604890482e-21
+8.70987084100000e-01 +0.00000000000000e+00 +3.48775894310470e+01 +5.78502221907503e-03 +4.83814377449931e-15 +8.56010998088711e+02 +0.00000000000000e+00 +0.00000000000000e+00 +1.23020654175195e-02 +5.87756978244911e+05 +1.00273033135190e-05 +2.39648519453049e-40 +1.02809733233816e-25 +0.00000000000000e+00 +2.62502587700299e-12 +1.65142473651444e-50 +5.16992000999091e-06 +7.89997415038957e-01 +5.94456920983646e-50 +2.09997415038408e-01 +3.54870329489466e-30 +6.51344392085388e-19
+8.70983500920000e-01 +0.00000000000000e+00 +3.48642348519217e+01 +9.00164131477857e-03 +4.87023615880489e-15 +9.54510448974439e+02 +0.00000000000000e+00 +0.00000000000000e+00 +1.10325214023836e-02 +6.98475776452715e+05 +1.48232088163855e-05 +8.08279074109906e-36 +1.01995242982711e-22 +0.00000000000000e+00 +1.01639180811725e-10 +4.63907669592686e-45 +1.93598300236168e-05 +7.89990320044840e-01 +6.77791364559485e-45 +2.09990320023497e-01 +2.97568222033608e-27 +3.97860758288033e-17
+8.70979201100000e-01 +0.00000000000000e+00 +3.48479125065469e+01 +1.36435629417886e-02 +4.59354776438659e-15 +1.06187706259596e+03 +0.00000000000000e+00 +0.00000000000000e+00 +9.91696748937469e-03 +8.21409181504998e+05 +2.13667476491126e-05 +7.80814596634111e-32 +4.40848338045558e-20 +0.00000000000000e+00 +2.53747569996007e-09 +2.89534620440608e-40 +6.17734529480927e-05 +7.89969112271222e-01 +1.90713725120121e-40 +2.09969111738353e-01 +1.11517764842444e-24 +1.49250100071728e-15
+8.70974041320000e-01 +0.00000000000000e+00 +3.48280118859635e+01 +2.03078105620131e-02 +3.99246607996062e-15 +1.17987351983370e+03 +0.00000000000000e+00 +0.00000000000000e+00 +8.92513549660437e-03 +9.59000318707668e+05 +3.02616204171199e-05 +2.76426355026925e-28 +9.77394881239605e-18 +6.23606660237757e-49 +4.45226844412423e-08 +5.40030772188472e-36 +1.73312327026034e-04 +7.89913326249997e-01 +1.74501213668273e-36 +2.09913316900254e-01 +2.18992503027901e-22 +3.78723507361340e-14
+8.70967849580000e-01 +0.00000000000000e+00 +3.48037569023216e+01 +2.97932749313959e-02 +3.10515502199848e-15 +1.30989569944045e+03 +0.00000000000000e+00 +0.00000000000000e+00 +8.03914698631425e-03 +1.11342554850862e+06 +4.22612064080570e-05 +4.14660942865896e-25 +1.22375482167789e-15 +9.92793795105316e-44 +5.77569466976169e-07 +3.58460779999507e-32 +4.35509291571421e-04 +7.89782017213730e-01 +6.10953892192032e-33 +2.09781895924542e-01 +2.47473213393018e-20 +6.88088810084309e-13
+8.70960419500000e-01 +0.00000000000000e+00 +3.47744779181898e+01 +4.31466700413327e-02 +2.15279183368722e-15 +1.45281811156155e+03 +0.00000000000000e+00 +0.00000000000000e+00 +7.24819945760199e-03 +1.28646166643717e+06 +5.82950301956765e-05 +5.15975179915045e-17 +9.16724842934037e-14 +2.47834057818321e-44 +5.70966842610406e-06 +5.23944856092334e-34 +9.90982219620728e-04 +7.89502253570986e-01 +5.02935247708417e-35 +2.09501054540876e-01 +9.48411347228690e-24 +5.15975085084236e-17
+8.70951503400000e-01 +0.00000000000000e+00 +3.47400019415453e+01 +6.17237788570742e-02 +1.40686073901719e-15 +1.60913093943077e+03 +0.00000000000000e+00 +0.00000000000000e+00 +6.54390135849454e-03 +1.47984539501079e+06 +7.95198511563658e-05 +3.05384222425743e-15 +4.29470329167902e-12 +2.01820881128174e-39 +4.40146426727416e-05 +3.40537598119265e-30 +2.05870936631636e-03 +7.88953259529138e-01 +1.95570795877877e-31 +2.08944016457572e-01 +2.39737249562798e-21 +3.05383982688491e-15
+8.70940804080000e-01 +0.00000000000000e+00 +3.47010214855607e+01 +8.71788351206710e-02 +1.04777297948999e-15 +1.77778435618378e+03 +0.00000000000000e+00 +0.00000000000000e+00 +5.92236357150789e-03 +1.69464523150458e+06 +1.07361533175348e-04 +1.12738168458342e-13 +1.28099676931761e-10 +4.38782053586690e-35 +2.66914102031079e-04 +7.95325691874051e-27 +3.91581775241584e-03 +7.87936659938695e-01 +2.89895332838180e-28 +2.07880608078533e-01 +3.17994523485912e-19 +1.12737850463810e-13
+8.70927964890000e-01 +0.00000000000000e+00 +3.46590809791854e+01 +1.21419550109705e-01 +1.16746889933239e-15 +1.95324981268473e+03 +0.00000000000000e+00 +0.00000000000000e+00 +5.38761568718571e-03 +1.92982144113447e+06 +1.43737891821442e-04 +2.50701197350465e-12 +2.35834864705545e-09 +2.32553248311699e-31 +1.25086145333869e-03 +6.21039010142577e-24 +6.77133690686905e-03 +7.86120239158541e-01 +1.53273530442915e-25 +2.05857560117888e-01 +2.11159400778321e-17 +2.50699085755821e-12
+8.70912557870000e-01 +0.00000000000000e+00 +3.46155026650170e+01 +1.66948753267780e-01 +1.77809156287623e-15 +2.12411928416755e+03 +0.00000000000000e+00 +0.00000000000000e+00 +4.94636912839854e-03 +2.18306501248938e+06 +1.91650403232762e-04 +3.15814279517015e-11 +2.53709213139313e-08 +2.55850224440638e-28 +4.39053175156008e-03 +1.42758865951067e-21 +1.05129852612323e-02 +7.83009224579802e-01 +2.56950970532484e-23 +2.02087232973322e-01 +6.45937007088687e-16 +3.15807820132431e-11
+8.70894069440000e-01 +0.00000000000000e+00 +3.45697948389589e+01 +2.27240934662112e-01 +2.85188539450587e-15 +2.27838090052003e+03 +0.00000000000000e+00 +0.00000000000000e+00 +4.59493216961166e-03 +2.45393126171421e+06 +2.54865702648261e-04 +2.24625405282422e-10 +1.59573133619663e-07 +5.85186092926078e-26 +1.15158300345422e-02 +9.64381810259665e-20 +1.46212374158564e-02 +7.78140485320547e-01 +1.36666836124666e-21 +1.95722287206670e-01 +9.06111983403232e-15 +2.24616344065705e-10
+8.70871883330000e-01 +0.00000000000000e+00 +3.45193640876494e+01 +3.07110519715804e-01 +4.38538094726937e-15 +2.41170276049792e+03 +0.00000000000000e+00 +0.00000000000000e+00 +4.31420514141726e-03 +2.74551590721641e+06 +3.37565667467043e-04 +9.97124269139778e-10 +6.46423366624862e-07 +3.69763773720968e-24 +2.37194360491428e-02 +2.38277712419184e-18 +1.85254556869860e-02 +7.71367515081926e-01 +2.83804203308904e-20 +1.86386944764330e-01 +6.67512262286197e-14 +9.97057515502393e-10
+8.70845260000000e-01 +0.00000000000000e+00 +3.44606086674385e+01 +4.13536042452095e-01 +6.26235174827627e-15 +2.52789569252965e+03 +0.00000000000000e+00 +0.00000000000000e+00 +4.07933073102586e-03 +3.06542214158855e+06 +4.45508266114965e-04 +3.19678251448522e-09 +1.93706768636897e-06 +9.70032013720494e-23 +4.12419631594845e-02 +2.95094633467295e-17 +2.19281591321870e-02 +7.62743607186639e-01 +3.09913601335431e-19 +1.74084327060438e-01 +3.14492636026811e-13 +3.19646799202970e-09
+8.70813312000000e-01 +0.00000000000000e+00 +3.43896403733286e+01 +5.56558739260007e-01 +8.43422554019924e-15 +2.63313411900325e+03 +0.00000000000000e+00 +0.00000000000000e+00 +3.87040073349773e-03 +3.42435842088666e+06 +5.86973423522157e-04 +8.33788106563736e-09 +4.80632661329382e-06 +1.47360616260579e-21 +6.41466849291741e-02 +2.36807996640004e-16 +2.47238190752000e-02 +7.52295837497747e-01 +2.27028851538474e-18 +1.58828835495504e-01 +1.11157698101464e-12 +8.33676924957656e-09
+8.70774974400000e-01 +0.00000000000000e+00 +3.43013813485010e+01 +7.50419690532757e-01 +1.09114106638941e-14 +2.73301766642435e+03 +0.00000000000000e+00 +0.00000000000000e+00 +3.67400907102887e-03 +3.83469659497411e+06 +7.73299386017591e-04 +1.91551286564962e-08 +1.06545428393801e-05 +1.62463084153590e-20 +9.26070161970850e-02 +1.46305975850649e-15 +2.68410325585533e-02 +7.39990151798538e-01 +1.31654235838935e-17 +1.40551106592727e-01 +3.27243522190462e-12 +1.91518547450337e-08
+8.70728969280000e-01 +0.00000000000000e+00 +3.41864257972371e+01 +1.01580173206376e+00 +1.35585986882347e-14 +2.83268756594334e+03 +0.00000000000000e+00 +0.00000000000000e+00 +3.48087360670477e-03 +4.31056949732028e+06 +1.02004492135495e-03 +4.09207197742584e-08 +2.22590021862485e-05 +1.52658876990517e-19 +1.26888428887082e-01 +7.84334920312322e-15 +2.81649988483261e-02 +7.25776596575050e-01 +6.80343891266798e-17 +1.19147634845916e-01 +8.59047410085003e-12 +4.09121213886210e-08
+8.70673763140000e-01 +0.00000000000000e+00 +3.40252224356730e+01 +1.38505389963466e+00 +1.64521174461640e-14 +2.93816829281897e+03 +0.00000000000000e+00 +0.00000000000000e+00 +3.28340354588276e-03 +4.86884816762625e+06 +1.35004478068941e-03 +8.49852530664805e-08 +4.59134444665398e-05 +1.41093412359208e-18 +1.67236354786613e-01 +4.03796709975014e-14 +2.84881379182325e-02 +7.09656368746977e-01 +3.48499868007256e-16 +9.45730551332045e-02 +2.11515019568289e-11 +8.49640608349426e-08
+8.70607515760000e-01 +0.00000000000000e+00 +3.37816698037499e+01 +1.91389367576426e+00 +1.93248195223816e-14 +3.05950348459535e+03 +0.00000000000000e+00 +0.00000000000000e+00 +3.07295494200380e-03 +5.53134963499633e+06 +1.79942744315034e-03 +1.80840549519912e-07 +9.92429837130510e-05 +1.54785999084323e-17 +2.13673520867878e-01 +2.26237948409001e-13 +2.74234613180914e-02 +6.91798172869128e-01 +2.03792000275003e-15 +6.70052402800908e-02 +5.13909222782723e-11 +1.80788930306288e-07
+8.70528018920000e-01 +0.00000000000000e+00 +3.34097908553773e+01 +2.70145356293962e+00 +2.20032325692898e-14 +3.22181776412417e+03 +0.00000000000000e+00 +0.00000000000000e+00 +2.83298521125509e-03 +6.33257650368970e+06 +2.41861547653009e-03 +4.37553204903132e-07 +2.54770541680159e-04 +3.01097826035221e-16 +2.65429305005400e-01 +1.78167955980344e-12 +2.41402943228231e-02 +6.72856693349941e-01 +1.84376805082007e-14 +3.73180616737451e-02 +1.34351431721279e-10 +4.37417053055612e-07
+8.70432622700000e-01 +0.00000000000000e+00 +3.29263208569461e+01 +3.87334304857435e+00 +2.45567455259277e-14 +3.51868173451128e+03 +0.00000000000000e+00 +0.00000000000000e+00 +2.51683464092515e-03 +7.33210965001722e+06 +3.18688576279319e-03 +1.65553088413691e-06 +1.15387398986537e-03 +3.73378814239474e-14 +3.15833161571070e-01 +4.37069230281332e-11 +1.67366744234204e-02 +6.55842711355810e-01 +6.84005743549532e-13 +1.04302675980664e-02 +4.79259072616167e-10 +1.65500719679763e-06
+8.70318147240000e-01 +0.00000000000000e+00 +3.24623366676121e+01 +5.48707422364123e+00 +2.58265631103427e-14 +3.99514179526992e+03 +0.00000000000000e+00 +0.00000000000000e+00 +2.18048763509285e-03 +8.34821247545722e+06 +4.17878239102576e-03 +8.69877659018224e-06 +8.25931469427279e-03 +2.13185281726874e-11 +3.35937277666728e-01 +2.56821660516679e-09 +8.89014692790282e-03 +6.45456394982706e-01 +8.29372298412788e-11 +1.43946817520994e-03 +1.95683289460463e-09 +8.69414728492439e-06
+8.70180776690000e-01 +0.00000000000000e+00 +3.21172815331246e+01 +7.52996197214651e+00 +2.53685961126848e-14 +4.44654792285720e+03 +0.00000000000000e+00 +0.00000000000000e+00 +1.92605723800159e-03 +9.57237933685059e+06 +5.55255864926339e-03 +2.97118803531023e-05 +3.58589719800470e-02 +2.57953112897294e-09 +3.36060675088946e-01 +5.43697866050952e-08 +5.20105101884887e-03 +6.22523405374294e-01 +3.11661068563826e-09 +2.96472777156905e-04 +5.32033604993010e-09 +2.96464940901418e-05
+8.70015932030000e-01 +0.00000000000000e+00 +3.18240077068193e+01 +1.00397853337679e+01 +2.37448949391705e-14 +4.73824842697147e+03 +0.00000000000000e+00 +0.00000000000000e+00 +1.76651142252067e-03 +1.09005935004303e+07 +7.18558869304061e-03 +5.73624995852922e-05 +7.84813247872480e-02 +3.54425039026762e-08 +3.30132849398595e-01 +2.88670276322891e-07 +3.73527434349699e-03 +5.87415113704850e-01 +2.22623944330222e-08 +1.20712766639131e-04 +9.03740603331124e-09 +5.70070870046009e-05
+8.69818118430000e-01 +0.00000000000000e+00 +3.14718859553803e+01 +1.31622179743529e+01 +2.09277040141842e-14 +4.95351889113941e+03 +0.00000000000000e+00 +0.00000000000000e+00 +1.64378058759643e-03 +1.23667850495371e+07 +9.13886868491288e-03 +8.77362728990827e-05 +1.29662878781875e-01 +2.01010292565175e-07 +3.21993152891272e-01 +8.75401467383150e-07 +2.90497559105932e-03 +5.45198739137910e-01 +8.04741081945323e-08 +6.47810520849353e-05 +1.26925519712821e-08 +8.65666944789687e-05
+8.69580742120000e-01 +0.00000000000000e+00 +3.10196762488185e+01 +1.71316483176374e+01 +1.67366120962242e-14 +5.13315385939839e+03 +0.00000000000000e+00 +0.00000000000000e+00 +1.53626364231659e-03 +1.40265647170730e+07 +1.15302673528490e-02 +1.20578551396677e-04 +1.87764918629071e-01 +7.62259164421418e-07 +3.12392327882303e-01 +2.06112794033107e-06 +2.32536969495285e-03 +4.97237014554039e-01 +2.12132895129792e-07 +3.92121368410371e-05 +1.63194597722864e-08 +1.17526711937023e-04
+8.69295890540000e-01 +0.00000000000000e+00 +3.04569504517746e+01 +2.22309855346971e+01 +1.18793863634892e-14 +5.29386125505473e+03 +0.00000000000000e+00 +0.00000000000000e+00 +1.43645434283071e-03 +1.59156810558127e+07 +1.44860696282433e-02 +1.56177774314978e-04 +2.51692494136130e-01 +2.31005885613539e-06 +3.01649739976517e-01 +4.22262974146667e-06 +1.87749344049571e-03 +4.44442662236140e-01 +4.66089398467833e-07 +2.52546620874763e-05 +1.99392811579552e-08 +1.49159057037750e-04
+8.68954068650000e-01 +0.00000000000000e+00 +2.97759944946249e+01 +2.87677986927595e+01 +7.03603841856193e-15 +5.44389870895378e+03 +0.00000000000000e+00 +0.00000000000000e+00 +1.34171371286315e-03 +1.80502968867930e+07 +1.81239982469786e-02 +1.95193731022232e-04 +3.19979526099833e-01 +6.06199871813667e-06 +2.90069318524009e-01 +7.92693716679246e-06 +1.51354449189130e-03 +3.88030368273038e-01 +9.04996242825523e-07 +1.68551491760622e-05 +2.35352237748930e-08 +1.80276263678407e-04
+8.68543882380000e-01 +0.00000000000000e+00 +2.89661660114357e+01 +3.70493035340046e+01 +2.59514632006130e-15 +5.58787412028874e+03 +0.00000000000000e+00 +0.00000000000000e+00 +1.25170694085947e-03 +2.04181284609529e+07 +2.25405900316121e-02 +2.38942450848613e-04 +3.90476263235873e-01 +1.43264750973201e-05 +2.78046360246102e-01 +1.39902637430236e-05 +1.21151809444529e-03 +3.29776463189357e-01 +1.59530042326172e-06 +1.15103325255054e-05 +2.70433467046515e-08 +2.09003368238303e-04
+8.68051658850000e-01 +0.00000000000000e+00 +2.80178623391779e+01 +4.73310119937259e+01 -5.96744875736022e-16 +5.72827679068608e+03 +0.00000000000000e+00 +0.00000000000000e+00 +1.16751979113799e-03 +2.29625762309613e+07 +2.77919302353427e-02 +2.89818284256567e-04 +4.60214927624119e-01 +3.10260276759561e-05 +2.66106352082880e-01 +2.34810278166240e-05 +9.60754814911365e-04 +2.72130323313323e-01 +2.57958276534929e-06 +8.00559625268987e-06 +3.03363758925945e-08 +2.32701309622746e-04
+8.67460990630000e-01 +0.00000000000000e+00 +2.69284479312133e+01 +5.97292833387523e+01 -2.60902410786912e-15 +5.86568661465265e+03 +0.00000000000000e+00 +0.00000000000000e+00 +1.09119292009179e-03 +2.55664228089444e+07 +3.38679008126265e-02 +3.51515329926843e-04 +5.25504452976463e-01 +6.17431618102207e-05 +2.54894379540572e-01 +3.75361301502213e-05 +7.56042915822724e-04 +2.18136413262663e-01 +3.82905259426544e-06 +5.68064462535889e-06 +3.32203737559745e-08 +2.48373764998379e-04
+8.66752188750000e-01 +0.00000000000000e+00 +2.57049161559531e+01 +7.41138287694697e+01 -3.05311331771918e-15 +5.99818495146646e+03 +0.00000000000000e+00 +0.00000000000000e+00 +1.02523420224531e-03 +2.80497331159172e+07 +4.06701389286709e-02 +4.28105547127784e-04 +5.82413222966614e-01 +1.12068676659630e-04 +2.45094401888761e-01 +5.68078906511387e-05 +5.94570317121195e-04 +1.71037449456454e-01 +5.20274431939434e-06 +4.14427679503389e-06 +3.54858213313854e-08 +2.53990749676287e-04
+8.65901626500000e-01 +0.00000000000000e+00 +2.43580091639704e+01 +9.00436828882265e+01 -2.77555756156289e-15 +6.12055297362694e+03 +0.00000000000000e+00 +0.00000000000000e+00 +9.71886711432103e-04 +3.02050704770121e+07 +4.80148946139502e-02 +5.20572573423106e-04 +6.27764643231621e-01 +1.83207681484114e-04 +2.37259818365288e-01 +8.05353106139067e-05 +4.73796389328473e-04 +1.33457448778715e-01 +6.47629184896250e-06 +3.14808820200804e-06 +3.70243609302022e-08 +2.50316265115192e-04
+8.64880951800000e-01 +0.00000000000000e+00 +2.28895769425897e+01 +1.06805723432123e+02 -2.44249065417534e-15 +6.22456640152333e+03 +0.00000000000000e+00 +0.00000000000000e+00 +9.32291971190069e-04 +3.18707076122676e+07 +5.56642607532047e-02 +6.21314218893484e-04 +6.60258419235259e-01 +2.66744482548233e-04 +2.31623516559908e-01 +1.05775018454650e-04 +3.89895640503917e-04 +1.06483014517330e-01 +7.45865141327517e-06 +2.52560920729857e-06 +3.79120171748362e-08 +2.41298154465104e-04
+8.63656142160000e-01 +0.00000000000000e+00 +2.12855311977798e+01 +1.23644596767196e+02 -2.14411821630733e-15 +6.30277918071448e+03 +0.00000000000000e+00 +0.00000000000000e+00 +9.05731487672160e-04 +3.30030571776189e+07 +6.33994143871795e-02 +7.13809673706934e-04 +6.81031478676231e-01 +3.45743025172840e-04 +2.28002549480745e-01 +1.28151773023746e-04 +3.36663357316817e-04 +8.91995316258568e-02 +8.09674968412648e-06 +2.15751243584726e-06 +3.83546698852816e-08 +2.31779771157123e-04
+8.62390527940000e-01 +0.00000000000000e+00 +1.97673670958195e+01 +1.37910228732025e+02 -1.70696790036118e-15 +6.34788180722158e+03 +0.00000000000000e+00 +0.00000000000000e+00 +8.91457597838443e-04 +3.36075808561504e+07 +7.00772509637980e-02 +7.74764328999428e-04 +6.91652387239561e-01 +3.98304750173539e-04 +2.26142686504501e-01 +1.42502181851323e-04 +3.09345981455005e-04 +8.03440755924951e-02 +8.41860642323064e-06 +1.97602398893048e-06 +3.85335058477286e-08 +2.25500257045841e-04
+8.61124913730000e-01 +0.00000000000000e+00 +1.83718350232111e+01 +1.49691461327172e+02 -1.26287869051112e-15 +6.37193914603715e+03 +0.00000000000000e+00 +0.00000000000000e+00 +8.84010745985201e-04 +3.39164904441246e+07 +7.57044827079446e-02 +8.09813576712083e-04 +6.96939013893614e-01 +4.28614273703768e-04 +2.25214000221942e-01 +1.50626320089281e-04 +2.95668521974445e-04 +7.59298033150650e-02 +8.57563239551267e-06 +1.88689397996215e-06 +3.86063296426110e-08 +2.21958744194130e-04
+8.59859299510000e-01 +0.00000000000000e+00 +1.70867489284011e+01 +1.59598264660721e+02 -1.08246744900953e-15 +6.38526330597529e+03 +0.00000000000000e+00 +0.00000000000000e+00 +8.79830828216034e-04 +3.40842461508496e+07 +8.05051616353941e-02 +8.30062670278545e-04 +6.99764010960367e-01 +4.46144153575305e-04 +2.24716804913427e-01 +1.55281114654403e-04 +2.88320100779228e-04 +7.35688992523459e-02 +8.65799555294879e-06 +1.83943252371424e-06 +3.86382545538136e-08 +2.19940768241549e-04
+8.58593685300000e-01 +0.00000000000000e+00 +1.59044525116839e+01 +1.68084940077170e+02 -9.71445146547012e-16 +6.39361154859415e+03 +0.00000000000000e+00 +0.00000000000000e+00 +8.77133368668045e-04 +3.41885770738261e+07 +8.46485351047381e-02 +8.43084796987039e-04 +7.01501418722602e-01 +4.57424727773209e-04 +2.24410678726246e-01 +1.58260918739802e-04 +2.83779816605945e-04 +7.21161429052761e-02 +8.70780147701924e-06 +1.81023529638009e-06 +3.86540598746637e-08 +2.18652694937331e-04
+8.57328071080000e-01 +0.00000000000000e+00 +1.48190272054289e+01 +1.75464262270696e+02 -6.41847686111419e-16 +6.39981971047927e+03 +0.00000000000000e+00 +0.00000000000000e+00 +8.75083104755136e-04 +3.42658092544186e+07 +8.82584353001380e-02 +8.52941927644642e-04 +7.02777592901911e-01 +4.65966750000157e-04 +2.24185643499735e-01 +1.60509609571221e-04 +2.80433735834233e-04 +7.10486572303008e-02 +8.74392016167442e-06 +1.78877693006614e-06 +3.86636228356910e-08 +2.17682984288943e-04
+8.56062456860000e-01 +0.00000000000000e+00 +1.38244364727874e+01 +1.81950699323795e+02 -4.09394740330526e-16 +6.40517381149478e+03 +0.00000000000000e+00 +0.00000000000000e+00 +8.73310022841986e-04 +3.43319842089696e+07 +9.14263383513484e-02 +8.61554271546701e-04 +7.03865498114761e-01 +4.73430983269502e-04 +2.23993676913703e-01 +1.62469255106268e-04 +2.77576016687604e-04 +7.01383699149240e-02 +8.77448332701874e-06 +1.77049683149539e-06 +3.86709121510473e-08 +2.16840878931937e-04
+8.54796842650000e-01 +0.00000000000000e+00 +1.29140493327153e+01 +1.87697617774717e+02 -4.23272528138341e-16 +6.41022308555168e+03 +0.00000000000000e+00 +0.00000000000000e+00 +8.71657026286567e-04 +3.43939010755907e+07 +9.42222460591489e-02 +8.69762127497519e-04 +7.04879389384573e-01 +4.80544571521044e-04 +2.23814655381927e-01 +1.64332590806039e-04 +2.74910534993986e-04 +6.92897669495257e-02 +8.80283693296685e-06 +1.75349398540569e-06 +3.86774637881087e-08 +2.16043450773852e-04
+8.53531228430000e-01 +0.00000000000000e+00 +1.20806943430708e+01 +1.92821115171036e+02 -5.20417042793042e-16 +6.41519234493724e+03 +0.00000000000000e+00 +0.00000000000000e+00 +8.70059565910883e-04 +3.44542414449065e+07 +9.67018012847844e-02 +8.77918394357822e-04 +7.05864686205731e-01 +4.87612586072981e-04 +2.23640567504827e-01 +1.66179659559637e-04 +2.72318951157697e-04 +6.84648535428559e-02 +8.83033799263108e-06 +1.73700671243333e-06 +3.86838686046500e-08 +2.15257126864132e-04
+8.52265614220000e-01 +0.00000000000000e+00 +1.13171348329017e+01 +1.97413456328137e+02 -3.64291929955129e-16 +6.42017169290485e+03 +0.00000000000000e+00 +0.00000000000000e+00 +8.68490651247605e-04 +3.45140941382139e+07 +9.89105634880614e-02 +8.86168665856400e-04 +7.06839432666535e-01 +4.94760963638546e-04 +2.23468227280363e-01 +1.68043432491946e-04 +2.69754013545388e-04 +6.76485279753871e-02 +8.85750306432231e-06 +1.72073245683781e-06 +3.86903137759204e-08 +2.14468076347973e-04
+8.51000000000000e-01 +0.00000000000000e+00 +1.06172770512636e+01 +2.01549292091603e+02 +1.21430643318376e-16 +6.42519646606174e+03 +0.00000000000000e+00 +0.00000000000000e+00 +8.66938899622239e-04 +3.45738818931591e+07 +1.00885995260633e-01 +8.94573417563363e-04 +7.07810500003063e-01 +5.02041963271634e-04 +2.23296418395599e-01 +1.69937443772569e-04 +2.67197491265649e-04 +6.68350327206147e-02 +8.88452123562511e-06 +1.70455433065017e-06 +3.86968442031511e-08 +2.13670792439487e-04
+8.49734390000000e-01 +0.00000000000000e+00 +9.97893737827560e+00 +2.05272392504415e+02 +9.02056207507940e-17 +6.43028202226300e+03 +0.00000000000000e+00 +0.00000000000000e+00 +8.65399661689059e-04 +3.46337773756818e+07 +1.02650321201171e-01 +9.03161563301043e-04 +7.08780631288431e-01 +5.09480476039673e-04 +2.23124652258337e-01 +1.71868011194661e-04 +2.64641982640126e-04 +6.60220629190995e-02 +8.91146522175976e-06 +1.68842489067231e-06 +3.87034767250855e-08 +2.12862907368372e-04
+8.48215658000000e-01 +0.00000000000000e+00 +9.28715714915676e+00 +2.09260797984540e+02 -1.76941794549634e-16 +6.43646678319295e+03 +0.00000000000000e+00 +0.00000000000000e+00 +8.63566715241474e-04 +3.47058119229703e+07 +1.04522321483435e-01 +9.13718666222539e-04 +7.09943658526361e-01 +5.18622459538652e-04 +2.22918565620798e-01 +1.74234735465107e-04 +2.61575971930902e-04 +6.50470934204857e-02 +8.94368856053268e-06 +1.66912797944117e-06 +3.87115225541854e-08 +2.11879071135840e-04
+8.46436691060000e-01 +0.00000000000000e+00 +8.56281528266713e+00 +2.13391054152027e+02 -5.37764277552810e-17 +6.44382960640903e+03 +0.00000000000000e+00 +0.00000000000000e+00 +8.61433415399228e-04 +3.47904683825361e+07 +1.06437483582630e-01 +9.26451774276277e-04 +7.11304933897660e-01 +5.29645966525136e-04 +2.22677109154372e-01 +1.77080088950247e-04 +2.57983146751054e-04 +6.39054236637432e-02 +8.98126544246319e-06 +1.64658892122960e-06 +3.87209549409726e-08 +2.10705732403631e-04
+8.44397194520000e-01 +0.00000000000000e+00 +7.83000357671467e+00 +2.17532803576628e+02 -7.11236625150491e-17 +6.45242995895724e+03 +0.00000000000000e+00 +0.00000000000000e+00 +8.59001048758597e-04 +3.48879046540220e+07 +1.08328465601870e-01 +9.41557283980832e-04 +7.12863888953019e-01 +5.42719266222417e-04 +2.22400255333298e-01 +1.80442947591227e-04 +2.53861910172417e-04 +6.25972584056796e-02 +9.02407692251470e-06 +1.62082986861827e-06 +3.87316584321903e-08 +2.09332261586376e-04
+8.42103091910000e-01 +0.00000000000000e+00 +7.11120352852723e+00 +2.21570576662227e+02 +1.16226472890446e-16 +6.46231076832699e+03 +0.00000000000000e+00 +0.00000000000000e+00 +8.56276503887321e-04 +3.49979985733086e+07 +1.10136065366071e-01 +9.59227677797943e-04 +7.14614770387347e-01 +5.58006531222971e-04 +2.22088868066640e-01 +1.84360010274000e-04 +2.49223286081428e-04 +6.11270909497073e-02 +9.07182569254586e-06 +1.59195462877252e-06 +3.87434144107779e-08 +2.07750567194148e-04
+8.39565269290000e-01 +0.00000000000000e+00 +6.42477345201077e+00 +2.25416517855233e+02 +8.67361737988404e-18 +6.47349988579964e+03 +0.00000000000000e+00 +0.00000000000000e+00 +8.53270621306420e-04 +3.51204477035307e+07 +1.11815619229520e-01 +9.79654018456647e-04 +7.16547636476365e-01 +5.75670015734082e-04 +2.21744530143699e-01 +1.88866852410298e-04 +2.44088429463848e-04 +5.95028767790975e-02 +9.12402096638409e-06 +1.56013446180166e-06 +3.87558839881053e-08 +2.05954373462024e-04
+8.36798099320000e-01 +0.00000000000000e+00 +5.78373436998899e+00 +2.29013633632536e+02 -1.14491749414469e-16 +6.48601509654144e+03 +0.00000000000000e+00 +0.00000000000000e+00 +8.49996995077446e-04 +3.52546848670115e+07 +1.13338455669935e-01 +1.00303832560575e-03 +7.18648510417260e-01 +5.95880023761027e-04 +2.21369509113944e-01 +1.93999393407337e-04 +2.38487824314642e-04 +5.77358904000571e-02 +9.18007110890945e-06 +1.52559321239902e-06 +3.87686702985827e-08 +2.03940068658303e-04
+8.33817880950000e-01 +0.00000000000000e+00 +5.19571506933400e+00 +2.32333787279273e+02 +1.24032728532342e-16 +6.49987581549417e+03 +0.00000000000000e+00 +0.00000000000000e+00 +8.46468647645311e-04 +3.54000560274490e+07 +1.14690581859456e-01 +1.02961632349992e-03 +7.20901907449706e-01 +6.18834494312109e-04 +2.20966309363035e-01 +1.99799056595336e-04 +2.32454788626359e-04 +5.58386071838953e-02 +9.23932989484965e-06 +1.48856773733856e-06 +3.87813369648387e-08 +2.01704661360787e-04
+8.30641348170000e-01 +0.00000000000000e+00 +4.66369905288951e+00 +2.35372204570641e+02 +2.28983498828939e-16 +6.51510881933830e+03 +0.00000000000000e+00 +0.00000000000000e+00 +8.42696483248346e-04 +3.55559611254781e+07 +1.15869746747208e-01 +1.05967105265477e-03 +7.23292327120123e-01 +6.44770659905984e-04 +2.20537407280456e-01 +2.06316166574626e-04 +2.26021747483973e-04 +5.38234524587575e-02 +9.30108963301218e-06 +1.44928787033775e-06 +3.87934081210359e-08 +1.99244343133158e-04