TITLE = "Electromagnetic Field"
VARIABLES = X Y E ER EI EvR EvI EvR' EvI' Ev EvPhase EpR EpI Ep EpPhase EpToEvPhaseShift elConductivity Jr Ji J Jphase QJ
ZONE N=262, E=227, F=FEPOINT, ET=QUADRILATERAL
1 0.0255673773 2.30345316799 -0.305435303637 -2.28311317556 0 -2.4733588759 0 -2.42104382485 2.4733588759 -90 -0.305435303637 0.19024570033 0.359839062918 148.082566323 -121.917433677 2.88086769491e-05 -9.33930524463e-12 -6.98108260595e-11 7.04327626717e-11 -97.6197974157 7.64279290558e-05
1 0.02568185276 2.30960671655 -0.306261208495 -2.28921105563 0 -2.47996269473 0 -2.43184221386 2.47996269473 -90 -0.306261208495 0.190751639096 0.360807588182 148.083708199 -121.916291801 0.000122923428458 -4.71825143684e-11 -3.52667448914e-10 3.55809667078e-10 -97.6200459294 0.000328970534795
1 0.025819223312 2.32211851782 -0.307940481259 -2.30160966949 0 -2.49338997608 0 -2.4447995735 2.49338997608 -90 -0.307940481259 0.191780306589 0.362776826789 148.086019692 -121.913980308 0.000592602427301 -2.72248024663e-10 -2.03479004168e-09 2.05292218574e-09 -97.6205477591 0.00160332794465
1 0.025984067974 2.33713173487 -0.309955471 -2.3164870714 0 -2.50950161005 0 -2.46034738094 2.50950161005 -90 -0.309955471 0.193014538651 0.365139707814 148.08877142 -121.91122858 0.0020795911527 -1.1449044878e-09 -8.55636833483e-09 8.63262679425e-09 -97.6211425084 0.00569965035388
1 0.026181881569 2.35514622734 -0.312373298911 -2.33433859456 0 -2.52883397049 0 -2.47900326534 2.52883397049 -90 -0.312373298911 0.194495375933 0.367974903029 148.092045231 -121.907954769 0.00583141040385 -3.85838998461e-09 -2.88326955536e-08 2.90897147835e-08 -97.6218466608 0.0162309304295
1 0.026419257883 2.37676163488 -0.315274528334 -2.35575844273 0 -2.55203047964 0 -2.50138817171 2.55203047964 -90 -0.315274528334 0.196272036915 0.371376817901 148.095938976 -121.904061024 0.0140493775347 -1.12091441685e-08 -8.375345943e-08 8.45002182233e-08 -97.6226798644 0.0398323294473
1 0.026704109459 2.4026972444 -0.318755880662 -2.38145937112 0 -2.5798629123 0 -2.52824692676 2.5798629123 -90 -0.318755880662 0.198403541177 0.375458755223 148.100571057 -121.899428943 0.0306604519439 -2.9595384708e-08 -2.21103816154e-07 2.23075736729e-07 -97.6236660118 0.0888619322523
1 0.027045931351 2.43381578873 -0.322933519772 -2.41229625763 0 -2.61325691016 0 -2.56047287118 2.61325691016 -90 -0.322933519772 0.200960652525 0.380356730507 148.106087333 -121.893912667 0.0630816707638 -7.39204758519e-08 -5.52163698675e-07 5.57089747628e-07 -97.6248350243 0.187683699027
1 0.027456117621 2.47115194289 -0.327947037381 -2.4492943197 0 -2.65332252374 0 -2.59913734787 2.65332252374 -90 -0.327947037381 0.204028204047 0.386234084388 148.112671884 -121.887328116 0.126774400004 -1.81032397996e-07 -1.35199975939e-06 1.36406600967e-06 -97.6262258069 0.389136454446
1 0.027948341146 2.5159464248 -0.333964304587 -2.4936828696 0 -2.70139074735 0 -2.64552498327 2.70139074735 -90 -0.333964304587 0.207707877748 0.393287070812 148.120563556 -121.879436444 0.259810360052 -4.54236717007e-07 -3.39158279402e-06 3.42186569665e-06 -97.627890975 0.827673131198
1 0.028539009375 2.56968677574 -0.341187367055 -2.54693566931 0 -2.75905718841 0 -2.70117586415 2.75905718841 -90 -0.341187367055 0.2121215191 0.40175161431 148.130079019 -121.869920981 0.589167621074 -1.26990971717e-06 -9.47915399059e-06 9.56383976707e-06 -97.6299033967 1.96240205484
1 0.02924781125 2.63415608167 -0.34985931616 -2.61081916604 0 -2.82823420404 0 -2.76793590669 2.82823420404 -90 -0.34985931616 0.217415037999 0.411911206293 148.141626982 -121.858373018 1.81420021529 -4.87549322984e-06 -3.63796742077e-05 3.67049196989e-05 -97.6323583318 6.38008855728
1 0.0300983735 2.71149111323 -0.360268809994 -2.68745054581 0 -2.91121305708 0 -2.84801692324 2.91121305708 -90 -0.360268809994 0.223762511273 0.424102911983 148.1555198 -121.8444802 6.62767719673 -2.21125658811e-05 -0.000164929960663 0.00016640570154 -97.6352966137 24.7780623523
1 0.0311190482 2.8042515913 -0.372731690099 -2.7793700852 0 -3.01073786851 0 -2.94406812138 3.01073786851 -90 -0.372731690099 0.231367783307 0.43870259541 148.17052443 -121.82947557 16.2175788972 -6.59597177847e-05 -0.000491810414307 0.000496213833021 -97.6381433201 64.5889233994
1 0.03234385784 2.90638656681 -0.386339146748 -2.88059454605 0 -3.12031351035 0 -3.05926099523 3.12031351035 -90 -0.386339146748 0.239718964296 0.454668141488 148.180812867 -121.819187133 27.0690653707 -0.000121681508096 -0.000907286141331 0.000915409488548 -97.6388127161 115.26143211
1 0.033609472056 2.96108832301 -0.393585848116 -2.93481417415 0 -3.17899833738 0 -3.17820998002 3.17899833738 -90 -0.393585848116 0.244184163221 0.463180014039 148.184167229 -121.815832771 32.502098827 -0.000150110769433 -0.00111931670291 0.00112933747149 -97.6383214414 142.489917225
0.90931088538 0.03234385784 4.11752666376 -0.868522732609 -4.02488435731 0 -4.45063130408 0 -4.55930570706 4.45063130408 -90 -0.868522732609 0.425746946763 0.967260151013 153.886060286 -116.113939714 85.7867511044 -0.000199862657364 -0.000926198075227 0.000947516731443 -102.177040868 727.215396911
0.90931088538 0.0311190482 4.05172841642 -0.855885031095 -3.96029821705 0 -4.37956152077 0 -4.3879286987 4.37956152077 -90 -0.855885031095 0.419263303713 0.953058753496 153.901927452 -116.098072548 79.5703339659 -0.000170615454261 -0.000789690960948 0.000807911827766 -102.195356911 655.325516454
0.90931088538 0.0300983735 3.91790413589 -0.829826689473 -3.82901551523 0 -4.23501122728 0 -4.24500246673 4.23501122728 -90 -0.829826689473 0.405995712044 0.923820803466 153.929780413 -116.070219587 65.8274821821 -0.000114229442662 -0.000527182420906 0.000539416056645 -102.228259945 506.962419154
0.90931088538 0.02924781125 3.80631914088 -0.807473090275 -3.71968444707 0 -4.11447447436 0 -4.12582200895 4.11447447436 -90 -0.807473090275 0.394790027288 0.898816980169 153.945115666 -116.054884334 51.9428586043 -7.32806310887e-05 -0.000337616849807 0.00034547820459 -102.247893905 377.665118424
0.90931088538 0.028539009375 3.71328781108 -0.78848982092 -3.62860718314 0 -4.01397447281 0 -4.02645417617 4.01397447281 -90 -0.78848982092 0.385367289666 0.877624149316 153.953375222 -116.046624778 37.8220503549 -4.3639543612e-05 -0.000200847858657 0.000205534114709 -102.259729402 261.892434633
0.90931088538 0.027948341146 3.6357319842 -0.772483836086 -3.55271948661 0 -3.93018878631 0 -3.94361324185 3.93018878631 -90 -0.772483836086 0.377469299694 0.859775755518 153.957862356 -116.042137644 23.457202321 -2.23397037339e-05 -0.000102751632327 0.000105152081912 -102.26716533 155.957892267
0.90931088538 0.027456117621 3.57108192995 -0.759057425948 -3.48947817837 0 -3.86034313165 0 -3.87455573491 3.86034313165 -90 -0.759057425948 0.37086495328 0.844812990954 153.960513624 -116.039486376 10.5143562079 -8.36796814e-06 -3.8472489124e-05 3.93720117766e-05 -102.272241307 67.6231657823
0.90931088538 0.027045931351 3.51719311946 -0.747833634229 -3.43677061853 0 -3.80212188809 0 -3.81699185538 3.80212188809 -90 -0.747833634229 0.365351269559 0.832308052818 153.962359852 -116.037640148 2.91540850357 -1.9102815297e-06 -8.77971719224e-06 8.98513269426e-06 -102.276080783 18.1741741826
0.90931088538 0.026704109459 3.47227637203 -0.738467276808 -3.39284088602 0 -3.75359288406 0 -3.769011042 3.75359288406 -90 -0.738467276808 0.360751998035 0.82187342279 153.963822254 -116.036177746 0.79803087882 -4.2434364617e-07 -1.94972922319e-06 1.99537254049e-06 -102.27918352 4.83449506597
0.90931088538 0.026419257883 3.43483930711 -0.730655000364 -3.35622769363 0 -3.71314430291 0 -3.72901954917 3.71314430291 -90 -0.730655000364 0.356916609286 0.813170459128 153.965022622 -116.034977378 0.325207322463 -1.41630495657e-07 -6.50598959785e-07 6.6583646934e-07 -102.281736 1.92508092122
0.90931088538 0.026181881569 3.40363733136 -0.724140258851 -3.32571315146 0 -3.67943183403 0 -3.69568816568 3.67943183403 -90 -0.724140258851 0.353718682568 0.805913159668 153.966015177 -116.033984823 0.153275177872 -5.50058777744e-08 -2.52630062301e-07 2.58549018528e-07 -102.283844848 0.890260889782
0.90931088538 0.025984067974 3.38829095706 -0.720935141967 -3.3107050806 0 -3.66285055949 0 -3.66790847636 3.66285055949 -90 -0.720935141967 0.352145478881 0.802342767912 153.966501649 -116.033498351 0.0976861737635 -3.05103424014e-08 -1.4011072525e-07 1.43394199058e-07 -102.284877576 0.56074382137
0.91150097381 0.033609472056 4.23313053383 -0.88117696807 -4.14040109982 0 -4.57433164288 0 -4.68770493845 4.57433164288 -90 -0.88117696807 0.433930543064 0.982226330976 153.782323899 -116.217676101 94.3955628623 -0.00025278587614 -0.00118776926488 0.00121437083535 -102.01466315 845.755646886
0.91150097381 0.03234385784 4.14343460102 -0.867406518082 -4.05162104043 0 -4.47782856976 0 -4.51258135839 4.47782856976 -90 -0.867406518082 0.42620752933 0.966461295282 153.832710521 -116.167289479 87.6625986414 -0.000220702139884 -0.00103139395823 0.00105474376441 -102.084609465 754.156675094
0.91150097381 0.0311190482 4.02952282927 -0.847407795717 -3.93940840739 0 -4.35500328965 0 -4.34295191432 4.35500328965 -90 -0.847407795717 0.415594882266 0.943832257694 153.875283097 -116.124716903 77.8440637746 -0.000173412150122 -0.000806472052055 0.000824905807692 -102.139991515 634.290075273
0.91150097381 0.0300983735 3.89643045871 -0.821524179993 -3.80883894973 0 -4.21125978157 0 -4.20148391427 4.21125978157 -90 -0.821524179993 0.402420831843 0.914792164314 153.90211843 -116.09788157 64.1723326451 -0.000115675917107 -0.000536461491636 0.000548791516939 -102.171489934 488.986123084
0.91150097381 0.02924781125 3.78545579339 -0.799335580024 -3.70009793187 0 -4.09139608616 0 -4.08351994591 4.09139608616 -90 -0.799335580024 0.39129815429 0.889972920141 153.916704085 -116.083295915 50.3334619735 -7.375584151e-05 -0.000341481673147 0.000349356224435 -102.190124486 362.12662564
0.91150097381 0.028539009375 3.69293335733 -0.780502579388 -3.60950958918 0 -3.99145746266 0 -3.98516672947 3.99145746266 -90 -0.780502579388 0.381947873482 0.86894685223 153.924420504 -116.075579496 36.2217559154 -4.34081258857e-05 -0.000200768768199 0.000205407896355 -102.201253229 248.233288233
0.91150097381 0.027948341146 3.61580180636 -0.764630348784 -3.53402751362 0 -3.90813992776 0 -3.90317190206 3.90813992776 -90 -0.764630348784 0.374112414136 0.851246052876 153.928524529 -116.071475471 21.9112825974 -2.16742842566e-05 -0.000100175558933 0.000102493547986 -102.208194323 144.243327206
0.91150097381 0.027456117621 3.55150545101 -0.751321008256 -3.47112306923 0 -3.83868462827 0 -3.83481988782 3.83868462827 -90 -0.751321008256 0.367561559035 0.83641193663 153.930913086 -116.069086914 9.42590822608 -7.77757870017e-06 -3.59254041429e-05 3.6757675589e-05 -102.212926023 60.047095088
0.91150097381 0.027045931351 3.49791148222 -0.740197777541 -3.41869564486 0 -3.78078883676 0 -3.77784419432 3.78078883676 -90 -0.740197777541 0.362093191902 0.824017231074 153.932573287 -116.067426713 2.52141107677 -1.70551324463e-06 -7.87379656673e-06 8.05639568883e-06 -102.216515805 15.5682275372
0.91150097381 0.026704109459 3.45324049935 -0.730916288851 -3.37499918236 0 -3.73253114951 0 -3.73035372444 3.73253114951 -90 -0.730916288851 0.357531967147 0.813675545804 153.933889886 -116.066110114 0.721691652361 -3.9698353107e-07 -1.83266938021e-06 1.87517371773e-06 -102.219421252 4.32846693314
0.91150097381 0.026419257883 3.41600828132 -0.723175141732 -3.3385803332 0 -3.69230873887 0 -3.69077098042 3.69230873887 -90 -0.723175141732 0.353728405666 0.805050453942 153.93497009 -116.06502991 0.300604816654 -1.35619848046e-07 -6.26022564981e-07 6.40544615829e-07 -102.221811552 1.76142544671
0.91150097381 0.026181881569 3.38497704078 -0.716719919083 -3.30822771793 0 -3.65878479567 0 -3.65778030976 3.65878479567 -90 -0.716719919083 0.350557077742 0.797858300776 153.9358629 -116.0641371 0.142642678707 -5.30563245634e-08 -2.4487427168e-07 2.50556272117e-07 -102.223786238 0.820077252749
0.91150097381 0.025984067974 3.36971464219 -0.713544135137 -3.29329927695 0 -3.64229625165 0 -3.63028460894 3.64229625165 -90 -0.713544135137 0.348996974695 0.794320011804 153.936300389 -116.063699611 0.0910254227837 -2.94696499786e-08 -1.35998847082e-07 1.39155187332e-07 -102.224753213 0.517190474813
0.9139022203 0.033609472056 4.20782485372 -0.871870584322 -4.1165053068 0 -4.5463703927 0 -4.63526124073 4.5463703927 -90 -0.871870584322 0.4298650859 0.972081533928 153.75470084 -116.24529916 92.5765793395 -0.000257203251883 -0.0012145260583 0.0012414622127 -101.958139438 819.774715997
0.9139022203 0.03234385784 4.13021584316 -0.857690305973 -4.04017703717 0 -4.46257960087 0 -4.46208640102 4.46257960087 -90 -0.857690305973 0.4224025637 0.956063272847 153.780461157 -116.219538843 86.7130740264 -0.000233824797158 -0.0011017966132 0.00112633532844 -101.985619525 742.009259158
0.9139022203 0.0311190482 3.98529946498 -0.830646133459 -3.89777138624 0 -4.30611366886 0 -4.29434572149 4.30611366886 -90 -0.830646133459 0.408342282622 0.925589915342 153.821427623 -116.178572377 74.5421674957 -0.000178395801217 -0.00083743283873 0.000856224035381 -102.030214265 594.208771774
0.9139022203 0.0300983735 3.85366456622 -0.805118848968 -3.76862024524 0 -4.16397635798 0 -4.15445376074 4.16397635798 -90 -0.805118848968 0.395356112733 0.896952085259 153.846333984 -116.153666016 61.0005160777 -0.000118126222991 -0.000553077441017 0.000565551762036 -102.059071711 454.755433265
0.9139022203 0.02924781125 3.7439052925 -0.78326420316 -3.6610530008 0 -4.04545262005 0 -4.037804549 4.04545262005 -90 -0.78326420316 0.384399619248 0.872505639521 153.859502069 -116.140497931 47.2386443956 -7.43789033937e-05 -0.000347717570734 0.000355583836221 -102.075835017 332.53638972
0.9139022203 0.028539009375 3.65239626699 -0.764733868452 -3.57143754741 0 -3.9466316127 0 -3.94054790198 3.9466316127 -90 -0.764733868452 0.375194065296 0.851814933927 153.866196482 -116.133803518 33.1420162746 -4.27112312105e-05 -0.000199486324391 0.000204007568182 -102.085647897 222.282319059
0.9139022203 0.027948341146 3.57610962821 -0.749130121895 -3.49676280383 0 -3.86424609184 0 -3.85946751892 3.86424609184 -90 -0.749130121895 0.367483288008 0.834410035586 153.869585507 -116.130414493 18.9851222039 -2.02334289267e-05 -9.44390767467e-05 9.65823021835e-05 -102.091674363 122.367066396
0.9139022203 0.027456117621 3.51251764256 -0.736055068762 -3.43452900171 0 -3.7955679244 0 -3.79187797465 3.7955679244 -90 -0.736055068762 0.361038922683 0.819833132295 153.871487628 -116.128512372 7.47005947009 -6.63181995204e-06 -3.09355376982e-05 3.1638420228e-05 -102.095773427 46.5823806426
0.9139022203 0.027045931351 3.45951083695 -0.725132519037 -3.38265941451 0 -3.73832005236 0 -3.73553796829 3.73832005236 -90 -0.725132519037 0.355660637847 0.80765825234 153.872802862 -116.127197138 1.87689999569 -1.35914800824e-06 -6.33738283408e-06 6.48149296904e-06 -102.098903523 11.3319121319
0.9139022203 0.026704109459 3.41532928517 -0.716020105076 -3.33942753382 0 -3.69060250962 0 -3.68857743989 3.69060250962 -90 -0.716020105076 0.351174975798 0.797501626556 153.873847095 -116.126152905 0.592650931839 -3.49413692046e-07 -1.62926314554e-06 1.66631072706e-06 -102.101443753 3.47629838704
0.9139022203 0.026419257883 3.37850501405 -0.708420588479 -3.30339575869 0 -3.65083036449 0 -3.64943645243 3.65083036449 -90 -0.708420588479 0.347434605801 0.789031509279 153.874702548 -116.125297452 0.257315189949 -1.24540069085e-07 -5.8065788978e-07 5.93863798652e-07 -102.103533582 1.47485309503
0.9139022203 0.026181881569 3.34781378924 -0.7020838405 -3.27336566402 0 -3.61768174221 0 -3.61681400752 3.61768174221 -90 -0.7020838405 0.344316078187 0.7819689672 153.875408716 -116.124591284 0.123626416172 -4.93509220716e-08 -2.30065959087e-07 2.35299642389e-07 -102.105259651 0.695280704605
0.9139022203 0.025984067974 3.33271862694 -0.69896643582 -3.25859582975 0 -3.60137780796 0 -3.58962522708 3.60137780796 -90 -0.69896643582 0.342781978212 0.778494538666 153.875754534 -116.124245466 0.0790439894633 -2.74666147116e-08 -1.28032680459e-07 1.30945796598e-07 -102.106104768 0.439346385185
0.91653186296 0.033609472056 4.1574672813 -0.853454708374 -4.0689226365 0 -4.49075037772 0 -4.57872709683 4.49075037772 -90 -0.853454708374 0.421827741216 0.952010413213 153.698374119 -116.301625881 89.0914229973 -0.000265162065972 -0.00126434554598 0.00129185227419 -101.845670389 770.171084193
0.91653186296 0.03234385784 4.08078480438 -0.839461969728 -3.99350561019 0 -4.40797946793 0 -4.4076532191 4.40797946793 -90 -0.839461969728 0.414473857742 0.936207983793 153.722813543 -116.277186457 83.2825663905 -0.000240568233019 -0.00114480260229 0.00116980673676 -101.871252383 695.781546182
0.91653186296 0.0311190482 3.93759858465 -0.812798511376 -3.8527941175 0 -4.25341848717 0 -4.24194881615 4.25341848717 -90 -0.812798511376 0.400624369672 0.906168642378 153.761434907 -116.238565093 71.2316764142 -0.000182618971758 -0.000865959155934 0.000885006148487 -101.912544553 554.394751156
0.91653186296 0.0300983735 3.80753545646 -0.787671201059 -3.72516885089 0 -4.11301256268 0 -4.10375596505 4.11301256268 -90 -0.787671201059 0.387843711799 0.877980026867 153.784442987 -116.215557013 57.8076114738 -0.000119920550714 -0.000567289920798 0.000579826864688 -101.938847602 420.788871254
0.91653186296 0.02924781125 3.69908693706 -0.766186759441 -3.61886521085 0 -3.99593320768 0 -3.98852416513 3.99593320768 -90 -0.766186759441 0.377067996824 0.853945356848 153.796223311 -116.203776689 44.1003071761 -7.44092780761e-05 -0.000351507405548 0.00035929702606 -101.953817141 303.160894221
0.91653186296 0.028539009375 3.60867086568 -0.747989237545 -3.53029764804 0 -3.8983169059 0 -3.89244969871 3.8983169059 -90 -0.747989237545 0.368019257855 0.833622405209 153.801928294 -116.198071706 30.0178233935 -4.14952334946e-05 -0.00019585533974 0.000200202941526 -101.962384166 196.65877834
0.91653186296 0.027948341146 3.53329547495 -0.73267901416 -3.45649285064 0 -3.81693601979 0 -3.81235514685 3.81693601979 -90 -0.73267901416 0.360443169153 0.816540293633 153.804637599 -116.195362401 16.1364121952 -1.8484961e-05 -8.71929290075e-05 8.91308619302e-05 -101.967558551 101.642049776
0.91653186296 0.027456117621 3.47046317203 -0.719858729712 -3.39498201937 0 -3.74909553306 0 -3.74558759167 3.74909553306 -90 -0.719858729712 0.354113513684 0.80224260742 153.806084546 -116.193915454 5.75997249484 -5.47875533608e-06 -2.58276249202e-05 2.64023453723e-05 -101.971075142 35.0830095335
0.91653186296 0.027045931351 3.41808964617 -0.709153328779 -3.34371404608 0 -3.69254605914 0 -3.6899328922 3.69254605914 -90 -0.709153328779 0.348832013058 0.790305284139 153.807075494 -116.192924506 1.41486167701 -1.09367341695e-06 -5.15438824608e-06 5.2691436391e-06 -101.973779975 8.3354620263
0.91653186296 0.026704109459 3.37443597119 -0.700223368115 -3.30098332281 0 -3.64541074111 0 -3.64354366912 3.64541074111 -90 -0.700223368115 0.344427418298 0.780348148448 153.807860304 -116.192139696 0.491125997438 -3.09536563514e-07 -1.45888072897e-06 1.49135800213e-06 -101.975979005 2.81186970287
0.91653186296 0.026419257883 3.3380516955 -0.692776558818 -3.26536912953 0 -3.60612393836 0 -3.6048789177 3.60612393836 -90 -0.692776558818 0.34075480883 0.772044958452 153.808501231 -116.191498769 0.220451339437 -1.141495062e-07 -5.37955932129e-07 5.49933705615e-07 -101.97778774 1.23352450404
0.91653186296 0.026181881569 3.30772720068 -0.686567481755 -3.2356869946 0 -3.57337987463 0 -3.57265343806 3.57337987463 -90 -0.686567481755 0.337692880033 0.765121953088 153.809029108 -116.190970892 0.106920674314 -4.56800317359e-08 -2.15253888052e-07 2.20047639446e-07 -101.979281138 0.587067764259
0.91653186296 0.025984067974 3.29281241467 -0.683512970829 -3.22108828203 0 -3.55727493109 0 -3.54579553214 3.55727493109 -90 -0.683512970829 0.33618664906 0.761716258048 153.809287326 -116.190712674 0.0684051637746 -2.54392748491e-08 -1.19864842107e-07 1.2253471487e-07 -101.980012196 0.371201025144
0.91940843578 0.033609472056 4.10328598006 -0.83383662308 -4.01766749527 0 -4.43095175084 0 -4.51793714544 4.43095175084 -90 -0.83383662308 0.413284255565 0.930638324268 153.634665006 -116.365334994 85.5926692402 -0.000272094306707 -0.00131120172868 0.00133913682397 -101.724425363 720.794875877
0.91940843578 0.03234385784 4.02760014244 -0.820058275348 -3.94322766467 0 -4.34927746774 0 -4.34912264965 4.34927746774 -90 -0.820058275348 0.406049803064 0.915080575977 153.65780078 -116.34219922 79.8391450444 -0.000246314077085 -0.00118476798891 0.00121010242114 -101.748156437 649.827241377
0.91940843578 0.0311190482 3.88627503803 -0.79382561432 -3.80433357527 0 -4.19676477178 0 -4.185608037 4.19676477178 -90 -0.79382561432 0.392431196511 0.885529048581 153.694108109 -116.305891891 67.9033485733 -0.000185944450442 -0.000891432615904 0.000910619882067 -101.786237721 514.895625289
0.91940843578 0.0300983735 3.75790272589 -0.769143641208 -3.67834631955 0 -4.05822048728 0 -4.04924236963 4.05822048728 -90 -0.769143641208 0.379874167726 0.857838348994 153.715246822 -116.284753178 54.5820490748 -0.000120949348206 -0.00057856394306 0.000591071447814 -101.810076805 387.117852023
0.91940843578 0.02924781125 3.65086428357 -0.748067101642 -3.57339994144 0 -3.94269416254 0 -3.93553480805 3.94269416254 -90 -0.748067101642 0.369294221094 0.834255899073 153.725669779 -116.274330221 40.9089584983 -7.3763102041e-05 -0.000352401863303 0.00036003923093 -101.823334676 274.05259745
0.91940843578 0.028539009375 3.56162401299 -0.730233751749 -3.48595846805 0 -3.84637317505 0 -3.84073161057 3.84637317505 -90 -0.730233751749 0.360414706991 0.814334316824 153.730420424 -116.269579576 26.8502806948 -3.97126201376e-05 -0.000189577975964 0.000193692937118 -101.830730774 171.480042944
0.91940843578 0.027948341146 3.48722896082 -0.715243067027 -3.41308890971 0 -3.7660724779 0 -3.76169717506 3.7660724779 -90 -0.715243067027 0.352983568187 0.797602860648 153.732488543 -116.267511457 13.413171975 -1.64724803577e-05 -7.85872278198e-05 8.02951065951e-05 -101.835119929 82.4004991599
0.91940843578 0.027456117621 3.42521395068 -0.702698721699 -3.35235563886 0 -3.69913266563 0 -3.69581354382 3.69913266563 -90 -0.702698721699 0.346777026767 0.783607090255 153.733512815 -116.266487185 4.31194769286 -4.37483958323e-06 -2.08588765411e-05 2.13127332348e-05 -101.838106036 25.5915095139
0.91940843578 0.027045931351 3.37352173639 -0.692227457743 -3.3017349505 0 -3.64333410638 0 -3.6408957845 3.64333410638 -90 -0.692227457743 0.341599155882 0.771925581037 153.734199909 -116.265800091 1.08775508976 -8.95095099941e-07 -4.26744692165e-06 4.36031257476e-06 -101.84042057 6.23966049165
0.91940843578 0.026704109459 3.33043598073 -0.68349383863 -3.25954352189 0 -3.59682479174 0 -3.59512090868 3.59682479174 -90 -0.68349383863 0.337281269858 0.762182880608 153.734739078 -116.265260922 0.40980458005 -2.75354746102e-07 -1.31283834239e-06 1.34140499093e-06 -101.842304072 2.28530339712
0.91940843578 0.026419257883 3.29452508018 -0.676211246323 -3.22437871822 0 -3.55805982382 0 -3.55696827139 3.55805982382 -90 -0.676211246323 0.333681105597 0.754059007451 153.73517655 -116.26482345 0.188897614542 -1.04345844241e-07 -4.97465953818e-07 5.08292047192e-07 -101.843852628 1.02963731969
0.91940843578 0.026181881569 3.26459513932 -0.670139398104 -3.19507106552 0 -3.52575073601 0 -3.52516966213 3.52575073601 -90 -0.670139398104 0.33067967049 0.747285829308 153.735535229 -116.264464771 0.0922378535414 -4.20542827873e-08 -2.00472908098e-07 2.04836546158e-07 -101.84513062 0.49338129663
0.91940843578 0.025984067974 3.24987441547 -0.667152473375 -3.18065652254 0 -3.50985974435 0 -3.49866755629 3.50985974435 -90 -0.667152473375 0.329203221804 0.743953920324 153.735710292 -116.264289708 0.0589710646824 -2.34024261398e-08 -1.11550637203e-07 1.13979108403e-07 -101.845756074 0.311751514016
0.9225518613 0.033609472056 4.04513788909 -0.812970924577 -3.96259963263 0 -4.36682466302 0 -4.45273780795 4.36682466302 -90 -0.812970924577 0.404225030391 0.907920687126 153.562040746 -116.437959254 82.0760476892 -0.00027782042128 -0.00135434028449 0.00138254275522 -101.593475271 671.761921867
0.9225518613 0.03234385784 3.97052140883 -0.799434787272 -3.88920546995 0 -4.28632652716 0 -4.28634688173 4.28632652716 -90 -0.799434787272 0.397121057205 0.892637444384 153.583885855 -116.416114145 76.3763846916 -0.000250890246192 -0.00122094519586 0.00124645719858 -101.615402038 604.23897539
0.9225518613 0.0311190482 3.83119325611 -0.773684809238 -3.75225674401 0 -4.13601063188 0 -4.12518115659 4.13601063188 -90 -0.773684809238 0.383753887866 0.863629340112 153.617902847 -116.382097153 64.5471635772 -0.000188223060113 -0.000913157649652 0.000932355168782 -101.650363713 475.769326011
0.9225518613 0.0300983735 3.70463524038 -0.749495185514 -3.62802393212 0 -3.99946294635 0 -3.99077540123 3.99946294635 -90 -0.749495185514 0.371439014238 0.83648690745 153.637196235 -116.362803765 51.3136742256 -0.000121098637505 -0.000586319132949 0.000598694886395 -101.671830505 353.799146174
0.9225518613 0.02924781125 3.59910989754 -0.728865648312 -3.52453206177 0 -3.88560222128 0 -3.87870278385 3.88560222128 -90 -0.728865648312 0.361070159509 0.813398518606 153.646290638 -116.353709362 37.6594164133 -7.2360804626e-05 -0.000349945557766 0.000357348825093 -101.683461472 245.306487767
0.9225518613 0.028539009375 3.51113136016 -0.71142899402 -3.43829787802 0 -3.79067042579 0 -3.78526317702 3.79067042579 -90 -0.71142899402 0.35237254777 0.793913075802 153.650122845 -116.349877155 23.6496559412 -3.73312590756e-05 -0.000180407127858 0.000184229230884 -101.689764733 146.924787166
0.9225518613 0.027948341146 3.43778831041 -0.696784778245 -3.36643137122 0 -3.71152819635 0 -3.70736583795 3.71152819635 -90 -0.696784778245 0.345096825133 0.777561047244 153.651589895 -116.348410105 10.8739873403 -1.42705204714e-05 -6.89218650075e-05 7.03837999662e-05 -101.693437966 65.0023553074
0.9225518613 0.027456117621 3.37665034895 -0.684538165479 -3.30653238036 0 -3.64555432301 0 -3.64243031152 3.64555432301 -90 -0.684538165479 0.339021942644 0.763890505897 153.652223254 -116.347776746 3.14842801876 -3.39262488709e-06 -1.63757397868e-05 1.67234928266e-05 -101.695945443 18.1606276207
0.9225518613 0.027045931351 3.32568926721 -0.674318493236 -3.25660643186 0 -3.59056108744 0 -3.58830299741 3.59056108744 -90 -0.674318493236 0.333954655575 0.752483529429 153.652624727 -116.347375273 0.853582562362 -7.45688341951e-07 -3.59971125021e-06 3.67613852024e-06 -101.697903418 4.75677328403
0.9225518613 0.026704109459 3.28321296502 -0.665795563659 -3.21499390629 0 -3.54472313204 0 -3.54318707082 3.54472313204 -90 -0.665795563659 0.329729225748 0.742970664476 153.652931237 -116.347068763 0.343777128033 -2.45551595428e-07 -1.18541881174e-06 1.21058488739e-06 -101.699497152 1.86304274459
0.9225518613 0.026419257883 3.24781006288 -0.658689089668 -3.18031152447 0 -3.50651780576 0 -3.50558372583 3.50651780576 -90 -0.658689089668 0.326206281299 0.735038885271 153.653175791 -116.346824209 0.161823711449 -9.50807858884e-08 -4.58982259377e-07 4.68727463385e-07 -101.700806657 0.8572913936
0.9225518613 0.026181881569 3.21830353658 -0.65276435729 -3.15140589657 0 -3.47467520663 0 -3.47424297553 3.47467520663 -90 -0.65276435729 0.323269310059 0.728426150414 153.653373971 -116.346626029 0.0793565819162 -3.84968240907e-08 -1.85818918014e-07 1.89764948519e-07 -101.701886732 0.412579369768
0.9225518613 0.025984067974 3.20379107067 -0.649849873617 -3.13718907271 0 -3.45901366676 0 -3.44812249826 3.45901366676 -90 -0.649849873617 0.321824594046 0.725173240705 153.653470139 -116.346529861 0.050634792118 -2.13773102153e-08 -1.03177833562e-07 1.05369223396e-07 -101.702415161 0.260177614668
0.92598354977 0.033609472056 3.98289305184 -0.790808002546 -3.90359239358 0 -4.29823419662 0 -4.38299058875 4.29823419662 -90 -0.790808002546 0.394641803045 0.883809890847 153.478519353 -116.521480647 78.5361305256 -0.000282146175769 -0.00139292316366 0.00142121241648 -101.451663669 623.193881437
0.92598354977 0.03234385784 3.90942102142 -0.777542788678 -3.83131467695 0 -4.21899423416 0 -4.21919263438 4.21899423416 -90 -0.777542788678 0.387679557206 0.868831858613 153.499079361 -116.500920639 72.8870626951 -0.000254111418512 -0.00125250489604 0.0012780235069 -101.471829735 559.118937464
0.92598354977 0.0311190482 3.77223009142 -0.752329054216 -3.6964435877 0 -4.07102833258 0 -4.06053994067 4.07102833258 -90 -0.752329054216 0.374584744876 0.840424433399 153.530816547 -116.469183453 61.1533654345 -0.000189297117602 -0.000930371649885 0.000949434790708 -101.503758275 437.09233234
0.92598354977 0.0300983735 3.64761388261 -0.72868033752 -3.57408558121 0 -3.93661645074 0 -3.92823103129 3.93661645074 -90 -0.72868033752 0.362530869534 0.813882130834 153.548278694 -116.451721306 47.991327759 -0.000120247048663 -0.000589908339721 0.000602039750159 -101.522941834 320.899279083
0.92598354977 0.02924781125 3.54370802337 -0.708538229007 -3.47214874454 0 -3.82453743287 0 -3.81790756881 3.82453743287 -90 -0.708538229007 0.352388688325 0.791330935265 153.556067965 -116.443932035 34.3448713525 -7.01192154294e-05 -0.000343633546146 0.000350714906496 -101.533030288 217.017573333
0.92598354977 0.028539009375 3.45707995537 -0.691531907652 -3.38720579266 0 -3.73109165554 0 -3.72592679509 3.73109165554 -90 -0.691531907652 0.343885862886 0.772317481022 153.559015796 -116.440984204 20.4417977222 -3.43499265348e-05 -0.000168222647291 0.000171694005909 -101.538319632 123.257879679
0.92598354977 0.027948341146 3.38486291006 -0.677261917758 -3.31641246231 0 -3.65318862964 0 -3.64924596648 3.65318862964 -90 -0.677261917758 0.336776167329 0.756374447468 153.559920469 -116.440079531 8.57439694501 -1.19760141936e-05 -5.86141394604e-05 5.98251534947e-05 -101.541345894 49.7473079497