TITLE = "Electromagnetic Field"
VARIABLES = X Y E ER EI EvR EvI EvR' EvI' Ev EvPhase EpR EpI Ep EpPhase EpToEvPhaseShift elConductivity Jr Ji J Jphase QJ
ZONE N=249, E=214, F=FEPOINT, ET=QUADRILATERAL
0 0.075 160.771696312 -39.4073908229 -155.86723652 0 -195.539972368 0 -195.528582163 195.539972368 -90 -39.4073908229 39.6727358478 55.9184086083 134.807750678 -135.192249322 5.46487586768e-96 -9.29885533327e-104 -3.67641978536e-103 3.79219588882e-103 -104.188572236 7.05961463909e-92
0 0.078960057578 168.916216765 -37.7991407921 -164.632661527 0 -202.810025197 0 -203.048277982 202.810025197 -90 -37.7991407921 38.1773636692 53.7241672002 134.714775039 -135.285224961 1.40585641478e-96 -1.43545493903e-103 -6.25206716775e-103 6.41473886858e-103 -102.930824421 2.00564314291e-92
0 0.078689931403 168.592495271 -37.8625999764 -164.285836339 0 -202.521494973 0 -202.547795838 202.521494973 -90 -37.8625999764 38.2356586334 53.8102414278 134.71911349 -135.28088651 1.40611602318e-96 -1.55425800839e-103 -6.74226636604e-103 6.91909689677e-103 -102.978299015 1.99833715146e-92
0 0.078379102643 167.95013994 -37.9886235022 -163.597346925 0 -201.948893985 0 -201.969627283 201.948893985 -90 -37.9886235022 38.3515470599 53.9812624465 134.727608544 -135.272391456 1.40655572519e-96 -1.75790628206e-103 -7.56879920518e-103 7.77026400863e-103 -103.072966331 1.98376049734e-92
0 0.078033822604 167.23778834 -38.1285866454 -162.833233778 0 -201.313740719 0 -201.324529457 201.313740719 -90 -38.1285866454 38.4805069404 54.1713813218 134.736792586 -135.263207414 1.40692583074e-96 -1.91766988798e-103 -8.18847350189e-103 8.41003111863e-103 -103.178910562 1.96748750107e-92
0 0.077664969066 166.476471873 -38.2784021711 -162.015893562 0 -200.634741774 0 -200.632085709 200.634741774 -90 -38.2784021711 38.6188482126 54.3751002878 134.746327481 -135.253672519 1.40723998657e-96 -2.01174972107e-103 -8.51438006774e-103 8.748822051e-103 -103.293263713 1.95005165538e-92
0 0.077287019364 165.694042387 -38.4326108708 -161.175120385 0 -199.936705277 0 -199.9190354 199.936705277 -90 -38.4326108708 38.7615848925 54.5850351475 134.755818135 -135.244181865 1.40750995418e-96 -2.02605853529e-103 -8.49705756943e-103 8.73527250589e-103 -103.412012879 1.93213546062e-92
0 0.076915933327 164.921487455 -38.5850983888 -160.344186847 0 -199.247265426 0 -199.215466383 199.247265426 -90 -38.5850983888 38.9030785789 54.7928768945 134.764874262 -135.235125738 1.40774535463e-96 -1.95838486988e-103 -8.13936905745e-103 8.37165899557e-103 -103.530495031 1.91447976705e-92
0 0.076566547332 164.188333377 -38.7300036793 -159.554913669 0 -198.592785354 0 -198.549907435 198.592785354 -90 -38.7300036793 39.0378716849 54.9906230645 134.773171372 -135.226828628 1.40795520453e-96 -1.81908092628e-103 -7.49558301698e-103 7.7131624691e-103 -103.644080047 1.89777766595e-92
0 0.076250340873 163.518469967 -38.8625549737 -158.83315651 0 -197.99462638 0 -197.944940679 197.99462638 -90 -38.8625549737 39.1614698696 55.1717220335 134.780492089 -135.219507911 1.40814587626e-96 -1.62792803408e-103 -6.6551054756e-103 6.85132203335e-103 -103.748847187 1.88257724897e-92
0 0.075974237547 162.927542795 -38.9796010873 -158.195953541 0 -197.466808426 0 -197.414673629 197.466808426 -90 -38.9796010873 39.2708548848 55.331811391 134.78673819 -135.21326181 1.40832663366e-96 -1.4086895172e-103 -5.71859995259e-103 5.88955100161e-103 -103.842061133 1.86923344189e-92
0 0.075740595209 162.422381615 -39.0797384456 -157.650859072 0 -197.015485465 0 -196.964482274 197.015485465 -90 -39.0797384456 39.3646263921 55.4689081645 134.791916115 -135.208083885 1.40850094934e-96 -1.18366585888e-103 -4.77624464006e-103 4.92073036236e-103 -103.922341918 1.85788867535e-92
0 0.075548074442 162.002168687 -39.1630882156 -157.197162758 0 -196.639976944 0 -196.592513115 196.639976944 -90 -39.1630882156 39.4428141859 55.5831185942 134.796107142 -135.203892858 1.40868582035e-96 -9.70082837655e-104 -3.89474344552e-103 4.01373784497e-103 -103.989545259 1.84852917642e-92
0 0.075392885381 161.660586432 -39.2308736321 -156.828183444 0 -196.334678987 0 -196.292007555 196.334678987 -90 -39.2308736321 39.5064955428 55.6760688084 134.799434616 -135.200565384 1.40887783392e-96 -7.78799189945e-104 -3.11393831281e-103 3.20985073637e-103 -104.04445872 1.84099226415e-92
0 0.075269989823 161.388147226 -39.2849572708 -156.533776898 0 -196.091143414 0 -196.053613964 196.091143414 -90 -39.2849572708 39.5573665154 55.7502745696 134.802036675 -135.197963325 1.40913229598e-96 -6.14891862837e-104 -2.4504967253e-103 2.52646529361e-103 -104.088441319 1.8351230758e-92
0 0.075174028629 161.174161322 -39.3274483178 -156.302464267 0 -195.899836976 0 -195.86720957 195.899836976 -90 -39.3274483178 39.5973727083 55.8086025384 134.804047725 -135.195952275 1.40941236693e-96 -4.79088027938e-104 -1.90434250956e-103 1.96368174089e-103 -104.123102817 1.83062348389e-92
0 0.075099919371 161.008118638 -39.3604258498 -156.122932668 0 -195.751378519 0 -195.723097639 195.751378519 -90 -39.3604258498 39.6284458513 55.8538883522 134.805588137 -135.194411863 1.41000456419e-96 -3.69474190613e-104 -1.46567704423e-103 1.51152918014e-103 -104.150068865 1.82762043642e-92
0 0.075043171299 160.88049695 -39.3857763778 -155.984916933 0 -195.63726388 0 -195.612654856 195.63726388 -90 -39.3857763778 39.6523469474 55.8887108417 134.806760077 -135.193239923 1.41040747857e-96 -2.82646922301e-104 -1.1195011772e-103 1.15463076265e-103 -104.170837152 1.82524643757e-92
0 0.0749568287 160.668216692 -39.4279501944 -155.755295387 0 -195.447433738 0 -195.444463728 195.447433738 -90 -39.4279501944 39.6921383504 55.9466630244 134.808685511 -135.191314489 2.44533167874e-94 -4.98121422125e-102 -1.96669455926e-101 2.02879581176e-101 -104.205465464 3.1544471288e-90
0 0.07490502314 160.553380496 -39.4507681593 -155.631051129 0 -195.344733524 0 -195.343461251 195.344733524 -90 -39.4507681593 39.7136823949 55.9780285292 134.809714666 -135.190285334 6.144739791e-93 -1.49923031183e-100 -5.91061473932e-100 6.09779125988e-100 -104.224241213 7.91459434967e-89
0 0.074842856468 160.415484621 -39.4781710804 -155.481833509 0 -195.221402746 0 -195.222171403 195.221402746 -90 -39.4781710804 39.7395692368 56.0157063277 134.810939121 -135.189060879 5.97389204549e-92 -1.73553973432e-99 -6.83059100982e-99 7.04762884261e-99 -104.246826228 7.68103284161e-88
0 0.074768256462 160.249876699 -39.5110850775 -155.302593205 0 -195.073275527 0 -195.076498544 195.073275527 -90 -39.5110850775 39.7706823222 56.060975883 134.81239318 -135.18760682 4.78225781646e-91 -1.66514766968e-98 -6.53978371205e-98 6.74844342473e-98 -104.27400634 6.13549365582e-87
0 0.074678736454 160.050956195 -39.550625366 -155.087246989 0 -194.895335368 0 -194.901511157 194.895335368 -90 -39.550625366 39.8080883794 56.1153799602 134.814115806 -135.185884194 2.86444308075e-90 -1.19193427231e-97 -4.66965629534e-97 4.81937735378e-97 -104.306735237 3.66557963395e-86
0 0.074571312445 159.81197712 -39.5981356247 -154.828460435 0 -194.681537375 0 -194.69126734 194.681537375 -90 -39.5981356247 39.8530769401 56.1807804118 134.816150502 -135.183849498 1.6666158167e-89 -8.33356395597e-97 -3.25489517696e-96 3.35988483346e-96 -104.346172837 2.12598934326e-85
0 0.074442403634 159.694387097 -39.6215146587 -154.701108097 0 -194.57633247 0 -194.43860218 194.57633247 -90 -39.6215146587 39.8752243733 56.2129695237 134.817144116 -135.182855884 2.67291184258e-89 -1.36520638778e-96 -5.33041058097e-96 5.50245994469e-96 -104.36560367 3.40826961934e-85
1e-05 0.074442403634 159.704915352 -39.6258991411 -154.710853213 0 -194.589950376 0 -194.46128398 194.589950376 -90 -39.6258991411 39.8790971627 56.2188071145 134.817531824 -135.182468176 1.2100364727e-77 -7.41790867194e-85 -2.8960488744e-84 2.98954056229e-84 -104.366260002 1.54330849461e-73
1e-05 0.074571312445 159.822515174 -39.6025116311 -154.838218471 0 -194.695161711 0 -194.71397489 194.695161711 -90 -39.6025116311 39.8569432399 56.1866074184 134.816537068 -135.183462932 6.70921454165e-78 -4.10175136817e-85 -1.60144517088e-84 1.65313952788e-84 -104.346825879 8.55753821078e-74
1e-05 0.074678736454 160.061514153 -39.5549841825 -155.097031247 0 -194.908972766 0 -194.924240112 194.908972766 -90 -39.5549841825 39.8119415186 56.1211855015 134.814500054 -135.185499946 1.32754011739e-79 -6.75651627491e-87 -2.64613009556e-86 2.73102721312e-86 -104.307381617 1.69873243703e-75
1e-05 0.074768256462 160.2604512 -39.5154296546 -155.312399225 0 -195.086923787 0 -195.099245299 195.086923787 -90 -39.5154296546 39.7745245622 56.0667636451 134.812775508 -135.187224492 2.33574120342e-81 -9.91045981027e-89 -3.89131156856e-88 4.01552958904e-88 -104.274647221 2.99680883816e-77
1e-05 0.074842856468 160.426072877 -39.4825038539 -155.491657596 0 -195.235060042 0 -195.244932966 195.235060042 -90 -39.4825038539 39.7434024458 56.0214793545 134.811319853 -135.188680147 1.6111549107e-83 -5.69402210253e-91 -2.24054307641e-90 2.3117638627e-90 -104.247462565 2.07176335509e-79
1e-05 0.07490502314 160.563980183 -39.4550911451 -155.640890215 0 -195.358398338 0 -195.366235137 195.358398338 -90 -39.4550911451 39.7175081222 55.9837893422 134.810094071 -135.189905929 6.14656490857e-86 -1.80978676415e-93 -7.13406635939e-93 7.36004286351e-93 -104.224873791 7.91846365663e-82
1e-05 0.0749568287 160.678825871 -39.4322650681 -155.765146919 0 -195.461104809 0 -195.46724787 195.461104809 -90 -39.4322650681 39.6959578904 55.9524137241 134.809063807 -135.190936193 1.04018659316e-89 -2.55071275635e-97 -1.00697447945e-96 1.03877762679e-96 -104.206094936 1.34212190337e-85
1e-05 0.075 160.782314038 -39.4116984046 -155.877099249 0 -195.553649075 0 -195.551374843 195.553649075 -90 -39.4116984046 39.676549826 55.9241502172 134.808127976 -135.191872024 1.37543875816e-94 -2.80074673979e-102 -1.10706336984e-101 1.14194182353e-101 -104.189198919 1.77697871506e-90
2.2e-05 0.074442403634 159.726325526 -39.6348148967 -154.730670877 0 -194.61764301 0 -194.48850652 194.61764301 -90 -39.6348148967 39.8869721328 56.2306775523 134.818320219 -135.181679781 5.80598876553e-68 -4.27214678379e-75 -1.66772735369e-74 1.72157686662e-74 -104.367594326 7.40724074843e-64
2.2e-05 0.074571312445 159.843945274 -39.6114101467 -154.858062408 0 -194.72286742 0 -194.741228334 194.72286742 -90 -39.6114101467 39.8648050123 56.1984563293 134.817323139 -135.182676861 3.1825155041e-68 -2.33982275672e-75 -9.13413390911e-75 9.42906002763e-75 -104.348153512 4.06029609923e-64
2.2e-05 0.074678736454 160.082984728 -39.5638477342 -155.116928511 0 -194.936705038 0 -194.951519246 194.936705038 -90 -39.5638477342 39.8197765267 56.1329907556 134.815281411 -135.184718589 1.88054801196e-70 -1.15089523256e-77 -4.50680581961e-77 4.65143618228e-77 -104.308695703 2.40699459051e-66
2.2e-05 0.074768256462 160.281955418 -39.5242642441 -155.332340743 0 -195.114678147 0 -195.126545798 195.114678147 -90 -39.5242642441 39.7823374043 56.0785327389 134.813552956 -135.186447044 8.47053550987e-73 -4.3164252035e-80 -1.69464537643e-79 1.74875333272e-79 -104.275950125 1.08709580659e-68
2.2e-05 0.074842856468 160.447605063 -39.491314435 -155.511635855 0 -195.262832776 0 -195.272251238 195.262832776 -90 -39.491314435 39.7511969212 56.0332184785 134.812094056 -135.187905944 2.22194031901e-75 -9.43003333068e-83 -3.7102306817e-82 3.82819369914e-82 -104.248756227 2.85797869434e-71
2.2e-05 0.07490502314 160.585535617 -39.463881817 -155.660898981 0 -195.386186361 0 -195.393568197 195.386186361 -90 -39.463881817 39.7252873802 55.9955036227 134.810865574 -135.189134426 6.67436305236e-79 -2.35885316614e-86 -9.29750067923e-86 9.59206480064e-86 -104.226159809 8.6009086701e-75
2.2e-05 0.0749568287 160.700400616 -39.4410392334 -155.785181004 0 -195.488905558 0 -195.494593239 195.488905558 -90 -39.4410392334 39.703724554 55.964107423 134.809833055 -135.190166945 8.87503543148e-85 -2.61220448239e-92 -1.03114538562e-91 1.06371844436e-91 -104.207374632 1.14545220863e-80
2.2e-05 0.075 160.803906179 -39.4204577277 -155.897156123 0 -195.581461285 0 -195.57873046 195.581461285 -90 -39.4204577277 39.6843051623 55.9358254075 134.808895201 -135.191104799 9.60891188867e-93 -2.35100911297e-100 -9.29194251218e-100 9.5847503619e-100 -104.190472941 1.24176445697e-88
3.64e-05 0.074442403634 159.752023926 -39.6455152592 -154.754457973 0 -194.650880746 0 -194.521179874 194.650880746 -90 -39.6455152592 39.8964227739 56.2449235982 134.819266417 -135.180733583 2.36622628944e-59 -2.08994246093e-66 -8.1575288222e-66 8.4209937641e-66 -104.36919502 3.01986646453e-55
3.64e-05 0.074571312445 159.86966759 -39.622089809 -154.88188104 0 -194.756120851 0 -194.773938782 194.756120851 -90 -39.622089809 39.8742398109 56.2126765306 134.818266544 -135.181733456 1.29419940276e-59 -1.14256381083e-66 -4.45972238814e-66 4.60375671251e-66 -104.349746176 1.65172028018e-55
3.64e-05 0.074678736454 160.108755621 -39.5744854153 -155.140811152 0 -194.96999035 0 -194.984260528 194.96999035 -90 -39.5744854153 39.8291791975 56.1471585434 134.816219153 -135.183780847 4.24404021254e-62 -3.11877436598e-69 -1.22112745814e-68 1.26032527761e-68 -104.310272105 5.4339933379e-58
3.64e-05 0.074768256462 160.30776669 -39.5348671499 -155.356276503 0 -195.14798997 0 -195.159312722 195.14798997 -90 -39.5348671499 39.7917134669 56.0926571133 134.814486003 -135.185513997 8.90619026149e-65 -5.44948499656e-72 -2.13921667927e-71 2.20753637985e-71 -104.277513105 1.1434003616e-60
3.64e-05 0.074842856468 160.473449904 -39.5018885131 -155.535615717 0 -195.296166652 0 -195.305039492 195.296166652 -90 -39.5018885131 39.760550935 56.0473068703 134.813023205 -135.186976795 2.37829002916e-68 -1.21162642795e-75 -4.76653542375e-75 4.91811941162e-75 -104.250308114 3.06014912887e-64
3.64e-05 0.07490502314 160.611408365 -39.4744319866 -155.684915467 0 -195.419538588 0 -195.426374202 195.419538588 -90 -39.4744319866 39.7346231213 56.0095621817 134.811791481 -135.188208519 8.77165848859e-73 -3.72117208757e-80 -1.46653309634e-79 1.5130071182e-79 -104.22770252 1.13075265547e-68
3.64e-05 0.0749568287 160.726296559 -39.4515695693 -155.809227904 0 -195.522273058 0 -195.527414018 195.522273058 -90 -39.4515695693 39.7130451543 55.9781412459 134.810756262 -135.189243738 4.43574061168e-80 -1.56714600913e-87 -6.18542024161e-87 6.380859674e-87 -104.208909749 5.72696384968e-76
3.64e-05 0.075 160.829823024 -39.4309702232 -155.921230406 0 -195.614842541 0 -195.611563537 195.614842541 -90 -39.4309702232 39.6936121346 55.9498369742 134.809815983 -135.190184017 7.89669851243e-91 -2.31982331524e-98 -9.16757104634e-98 9.45652891415e-98 -104.192001237 1.02085002183e-86
5.368e-05 0.074442403634 159.782870925 -39.6583577863 -154.783010988 0 -194.690775503 0 -194.560396986 194.690775503 -90 -39.6583577863 39.9077645145 56.2620210374 134.82040203 -135.17959797 5.38219330569e-52 -5.70651243192e-59 -2.2270479652e-58 2.29899662476e-58 -104.371115137 6.87182690539e-48
5.368e-05 0.074571312445 159.900543295 -39.6349074781 -154.910471911 0 -194.796034444 0 -194.813200415 194.796034444 -90 -39.6349074781 39.8855625331 56.2297429383 134.819398803 -135.180601197 2.94211596217e-52 -3.11826769255e-59 -1.21695533805e-58 1.25627076318e-58 -104.351656654 3.75643395427e-48
5.368e-05 0.074678736454 160.139689629 -39.5872526711 -155.169478858 0 -195.009942209 0 -195.02355917 195.009942209 -90 -39.5872526711 39.8404633509 56.1641620186 134.817344606 -135.182655394 7.65757536416e-55 -6.75576223263e-62 -2.64475758978e-61 2.72967872557e-61 -104.312163065 9.80870539166e-51
5.368e-05 0.074768256462 160.338749164 -39.5475926457 -155.385007974 0 -195.187973651 0 -195.198642141 195.187973651 -90 -39.5475926457 39.8029656769 56.1096084614 134.815605817 -135.184394183 1.03053513347e-57 -7.56951837503e-65 -2.97100222034e-64 3.06591426458e-64 -104.279387953 1.32358132438e-53
5.368e-05 0.074842856468 160.504472672 -39.5145793894 -155.56440013 0 -195.336176803 0 -195.344394514 195.336176803 -90 -39.5145793894 39.7717766727 56.064215011 134.814138337 -135.185861663 1.16040977993e-61 -7.09658639349e-69 -2.79138315356e-68 2.880179733e-68 -104.252169646 1.49372546412e-57
5.368e-05 0.07490502314 160.642464635 -39.4870941469 -155.713743851 0 -195.459570764 0 -195.465750529 195.459570764 -90 -39.4870941469 39.7458269135 56.0264344916 134.812902721 -135.187097279 6.2373343103e-67 -3.17635518422e-74 -1.25163405893e-73 1.29130946719e-73 -104.229553035 8.04389913772e-63
5.368e-05 0.0749568287 160.757380691 -39.4642078957 -155.838092822 0 -195.562323566 0 -195.566808077 195.562323566 -90 -39.4642078957 39.7242307438 55.9949838251 134.811864263 -135.188135737 7.61135143881e-76 -3.22800799932e-83 -1.27388672022e-82 1.31414905258e-82 -104.210751139 9.83109283415e-72
5.368e-05 0.075 160.860932268 -39.4435871069 -155.950128225 0 -195.654909559 0 -195.650972359 195.654909559 -90 -39.4435871069 39.7047813339 55.9666527956 134.810921081 -135.189078919 6.40672153729e-89 -2.25925867532e-96 -8.926929368e-96 9.20838301246e-96 -104.193834432 8.28578500666e-85
7.4416e-05 0.074442403634 159.819900177 -39.6737718237 -154.817286857 0 -194.738662854 0 -194.607470606 194.738662854 -90 -39.6737718237 39.9213759965 56.2825411002 134.821765017 -135.178234983 1.20500068841e-45 -1.53377824776e-52 -5.98470634391e-52 6.17812153783e-52 -104.373418245 1.53928129726e-41
7.4416e-05 0.074571312445 159.937607001 -39.6502916606 -154.944793224 0 -194.843944406 0 -194.860327475 194.843944406 -90 -39.6502916606 39.8991511821 56.2502257374 134.820757759 -135.179242241 6.58545346116e-46 -8.37954032299e-53 -3.26966037926e-52 3.37532901599e-52 -104.353948191 8.41238429088e-42
7.4416e-05 0.074678736454 160.176823317 -39.6025763059 -155.203892409 0 -195.057898104 0 -195.070730654 195.057898104 -90 -39.6025763059 39.8540056946 56.1845692457 134.818695385 -135.181304615 1.52790163366e-48 -1.61832484235e-55 -6.33430589628e-55 6.5377676996e-55 -104.314431171 1.95809289371e-44
7.4416e-05 0.074768256462 160.375941025 -39.5628661248 -155.419498072 0 -195.23596774 0 -195.245850567 195.23596774 -90 -39.5628661248 39.8164696682 56.1299530906 134.816949818 -135.183050182 1.4522823528e-51 -1.28062723656e-58 -5.0255094398e-58 5.1861113803e-58 -104.281636718 1.86619400255e-47
7.4416e-05 0.074842856468 160.541712902 -39.529811287 -155.598953789 0 -195.384202666 0 -195.391633672 195.384202666 -90 -39.529811287 39.7852488764 56.0845077491 134.815476714 -135.184523286 8.13516602344e-56 -5.97265191614e-63 -2.34887701278e-62 2.42362309988e-62 -104.254402424 1.04771661626e-51
7.4416e-05 0.07490502314 160.67974509 -39.5022915474 -155.748350309 0 -195.507623065 0 -195.513015259 195.507623065 -90 -39.5022915474 39.7592727557 56.0466841869 134.814236425 -135.185763575 6.38266972899e-62 -3.90206107696e-69 -1.5373256194e-68 1.58607404195e-68 -104.231772584 8.23546313532e-58
7.4416e-05 0.0749568287 160.794694612 -39.4793766533 -155.872743168 0 -195.610397872 0 -195.614094093 195.610397872 -90 -39.4793766533 39.7376547033 56.0151977855 134.813194083 -135.186805917 1.1718512342e-72 -5.96583823962e-80 -2.35391898196e-79 2.42834240433e-79 -104.212959726 1.51436477825e-68
7.4416e-05 0.075 160.898276355 -39.4587300936 -155.984818096 0 -195.703003683 0 -195.698276094 195.703003683 -90 -39.4587300936 39.7181855869 55.9868345916 134.812247418 -135.187752582 4.57662427207e-87 -1.93703126038e-94 -7.65238864212e-94 7.89374068707e-94 -104.196033172 5.92189281518e-83
9.92992e-05 0.074442403634 159.864353799 -39.6922729826 -154.858435559 0 -194.79614733 0 -194.663977802 194.79614733 -90 -39.6922729826 39.9377117711 56.3071696748 134.823400962 -135.176599038 3.78299795383e-40 -5.7811137853e-47 -2.25526521558e-46 2.32818254408e-46 -104.376180482 4.83535296452e-36
9.92992e-05 0.074571312445 159.982101979 -39.6687569566 -154.985996483 0 -194.901456024 0 -194.91689882 194.901456024 -90 -39.6687569566 39.9154595411 56.274809558 134.822388857 -135.177611143 2.06732005865e-40 -3.15825246897e-47 -1.23206908014e-46 1.27190400826e-46 -104.356696536 2.64242353275e-36
9.92992e-05 0.074678736454 160.221402299 -39.6209688699 -155.245206405 0 -195.115464859 0 -195.127355324 195.115464859 -90 -39.6209688699 39.8702584543 56.209062303 134.820316654 -135.179683346 4.64246145671e-43 -5.90386500261e-50 -2.31034126306e-49 2.3845823476e-49 -104.317151387 5.95315783427e-39
9.92992e-05 0.074768256462 160.420589839 -39.5811984389 -155.460903971 0 -195.293580346 0 -195.302519582 195.293580346 -90 -39.5811984389 39.8326763747 56.154370964 134.818562941 -135.181437059 3.00974380965e-46 -3.18641197762e-53 -1.25016269992e-52 1.29013138447e-52 -104.284333715 3.86987390686e-42
9.92992e-05 0.074842856468 160.586419783 -39.5480936472 -155.640436004 0 -195.441853411 0 -195.448339578 195.441853411 -90 -39.5480936472 39.8014174066 56.1088632914 134.817083078 -135.182916922 7.61289591955e-51 -6.71040636028e-58 -2.6384550823e-57 2.72245124043e-57 -104.257080226 9.81045065948e-47
9.92992e-05 0.07490502314 160.724500271 -39.5205324577 -155.789895932 0 -195.565305547 0 -195.569751862 195.565305547 -90 -39.5205324577 39.7754096149 56.0709880133 134.815837176 -135.184162824 8.88608810229e-58 -6.52224105088e-65 -2.56907575386e-64 2.65057475131e-64 -104.234434499 1.14724975975e-53
9.92992e-05 0.0749568287 160.839489988 -39.4975831384 -155.91434151 0 -195.668106767 0 -195.670856246 195.668106767 -90 -39.4975831384 39.7537652575 56.0394586594 134.814790174 -135.185209826 1.10316470489e-69 -6.74236704032e-77 -2.65975167848e-76 2.74387939317e-76 -104.215608473 1.42646143389e-65
9.92992e-05 0.075 160.943107962 -39.4769056065 -156.026463914 0 -195.760736368 0 -195.755059517 195.760736368 -90 -39.4769056065 39.7342724543 56.0110568069 134.813839329 -135.186160671 2.8087312119e-85 -1.42679839807e-92 -5.63549708001e-92 5.81331067538e-92 -104.19867009 3.63652253321e-81
0.00012915904 0.074442403634 159.917724836 -39.7144805624 -154.907839458 0 -194.865157017 0 -194.731813595 194.865157017 -90 -39.7144805624 39.9573175583 56.3367304153 134.825364608 -135.174635392 2.05667179375e-35 -3.77384034442e-42 -1.47182688174e-41 1.51943840917e-41 -104.379493005 2.63069670958e-31
0.00012915904 0.074571312445 160.035522662 -39.6909214479 -155.035465888 0 -194.970498294 0 -194.984811623 194.970498294 -90 -39.6909214479 39.9350324063 56.3043165392 134.824346675 -135.175653325 1.12383135645e-35 -2.06152843413e-42 -8.04015750549e-42 8.3002429034e-42 -104.359992381 1.4375053017e-31
0.00012915904 0.074678736454 160.274923823 -39.6430459744 -155.294808768 0 -195.18457332 0 -195.195332141 195.18457332 -90 -39.6430459744 39.8897645518 56.2384602567 134.822262652 -135.177737348 2.41328930624e-38 -3.68513908598e-45 -1.44172180839e-44 1.48807401491e-44 -104.32041346 3.0968637588e-34
0.00012915904 0.074768256462 160.474195196 -39.6032031519 -155.510616684 0 -195.362743848 0 -195.370549634 195.362743848 -90 -39.6032031519 39.8521271638 56.1836786 134.820499146 -135.179500854 1.00394116948e-41 -1.27621149501e-48 -5.00582987375e-48 5.165950881e-48 -104.287567909 1.29178278238e-37
0.00012915904 0.074842856468 160.640094856 -39.5700383349 -155.690240361 0 -195.5110627 0 -195.516413915 195.5110627 -90 -39.5700383349 39.8208223393 56.1380960407 134.81901116 -135.18098884 1.04782196338e-46 -1.10898267128e-53 -4.3592836406e-53 4.49813254856e-53 -104.260291372 1.35126522072e-42
0.00012915904 0.07490502314 160.778233343 -39.542427331 -155.839776442 0 -195.634552934 0 -195.637863051 195.634552934 -90 -39.542427331 39.7947764926 56.1001586153 134.817758516 -135.182241484 1.86403799407e-54 -1.6426995098e-61 -6.46886726251e-61 6.67418199779e-61 -104.237626563 2.40833079795e-50
0.00012915904 0.0749568287 160.893271338 -39.5194366326 -155.964285348 0 -195.737385864 0 -195.738998106 195.737385864 -90 -39.5194366326 39.7731005168 56.0685776323 134.816705918 -135.183294082 2.59857421947e-67 -1.90614503489e-74 -7.51753328641e-74 7.75543007234e-74 -104.218784719 3.36254506115e-63
0.00012915904 0.075 160.996932821 -39.4987218761 -156.076464777 0 -195.830044025 0 -195.823226912 195.830044025 -90 -39.4987218761 39.7535792483 56.040129319 134.815750054 -135.184249946 1.62620803218e-83 -9.9177324343e-91 -3.91627436266e-90 4.0399033467e-90 -104.201832128 2.10700467168e-79
0.000164990848 0.074442403634 159.981808555 -39.741138531 -154.967160847 0 -194.948009436 0 -194.813255674 194.948009436 -90 -39.741138531 39.9808485884 56.3722125444 134.827721711 -135.172278289 2.32022124946e-31 -5.11258073841e-38 -1.99332477858e-37 2.05784559454e-37 -104.383464904 2.97037801516e-27
0.000164990848 0.074571312445 160.099665981 -39.7175276335 -155.094865936 0 -195.053389832 0 -195.066346156 195.053389832 -90 -39.7175276335 39.9585238962 56.3397340786 134.826696767 -135.173303233 1.2675841785e-31 -2.79236448989e-38 -1.08870892496e-37 1.12394845018e-37 -104.363944254 1.62278642027e-27
0.000164990848 0.074678736454 160.339188205 -39.6695471394 -155.354368475 0 -195.267544325 0 -195.276943528 195.267544325 -90 -39.6695471394 39.9131758499 56.2737468014 134.824598526 -135.175401474 2.41122902102e-34 -4.42164752676e-41 -1.72932803945e-40 1.78496082219e-40 -104.324324781 3.09690364661e-30
0.000164990848 0.074768256462 160.538560226 -39.6296173147 -155.570308907 0 -195.445780935 0 -195.452224933 195.445780935 -90 -39.6296173147 39.8754720272 56.2188566233 134.822823241 -135.177176759 5.85927289225e-38 -8.94426663744e-45 -3.50723548709e-44 3.61948888915e-44 -104.291445753 7.54573847288e-34
0.000164990848 0.074842856468 160.704543597 -39.5963803522 -155.750042645 0 -195.594154757 0 -195.598142382 195.594154757 -90 -39.5963803522 39.8441121113 56.1731840727 134.821325488 -135.178674512 2.30393352838e-43 -2.92804817625e-50 -1.1506312015e-49 1.18730233011e-49 -104.264141537 2.97371866369e-39
0.000164990848 0.07490502314 160.842751733 -39.5687094683 -155.899670197 0 -195.717690731 0 -195.719635759 195.717690731 -90 -39.5687094683 39.8180205344 56.1351719517 134.820064741 -135.179935259 7.1778889469e-52 -7.59390887244e-59 -2.98953653089e-58 3.08447778226e-58 -104.24145381 9.28184837657e-48
0.000164990848 0.0749568287 160.957847709 -39.545669026 -156.024255175 0 -195.820561731 0 -195.820807638 195.820561731 -90 -39.545669026 39.7963065565 56.1035289081 134.819005421 -135.180994579 2.05527228181e-65 -1.80832586252e-72 -7.1296078726e-72 7.35536204714e-72 -104.222592963 2.66180738754e-61
0.000164990848 0.075 161.061561441 -39.5249095253 -156.136503095 0 -195.913254179 0 -195.905067099 195.913254179 -90 -39.5249095253 39.776751084 56.0750247564 134.818043523 -135.181956477 9.54077384598e-82 -6.98757455857e-89 -2.75839567633e-88 2.84552432599e-88 -104.205623309 1.23722692482e-77
0.0002079890176 0.074442403634 160.013333464 -39.7542509236 -154.996343247 0 -194.988765354 0 -194.911042546 194.988765354 -90 -39.7542509236 39.9924221076 56.3896647669 134.828881099 -135.171118901 4.2534247484e-31 -9.37248813551e-38 -3.65420390116e-37 3.77248478987e-37 -104.385417618 5.44529112195e-27
0.0002079890176 0.074571312445 160.131220207 -39.7306145423 -155.124087031 0 -195.094164993 0 -195.164244036 195.094164993 -90 -39.7306145423 39.9700779621 56.3571545186 134.827852703 -135.172147297 2.32373263342e-31 -5.11901994642e-38 -1.99584352825e-37 2.06044535101e-37 -104.365887118 2.97488882165e-27
0.0002079890176 0.074678736454 160.370801982 -39.682582365 -155.383668115 0 -195.308358576 0 -195.374933685 195.308358576 -90 -39.682582365 39.9246904617 56.2911027827 134.825747462 -135.174252538 4.42021784747e-34 -8.10579079921e-41 -3.17021447889e-40 3.27220083241e-40 -104.326247695 5.67718356107e-30
0.0002079890176 0.074768256462 160.570223514 -39.6426097236 -155.59967374 0 -195.486627693 0 -195.550291827 195.486627693 -90 -39.6426097236 39.8869539523 56.2361592031 134.823966379 -135.176033621 1.07404665418e-37 -1.63958724416e-44 -6.42916696268e-44 6.63494040404e-44 -104.293352198 1.38318803592e-33
0.0002079890176 0.074842856468 160.736248064 -39.6093372548 -155.779461626 0 -195.635028555 0 -195.696273112 195.635028555 -90 -39.6093372548 39.8555669287 56.1904423671 134.822463819 -135.177536181 4.22227739318e-43 -5.36639412948e-50 -2.108824568e-49 2.1760337585e-49 -104.266034365 5.44975324202e-39
0.0002079890176 0.07490502314 160.874490465 -39.5816368999 -155.929134181 0 -195.758587029 0 -195.81781961 195.758587029 -90 -39.5816368999 39.8294528481 56.1523934856 134.821199084 -135.178800916 1.31309960237e-51 -1.38970777714e-58 -5.47093725229e-58 5.6446826416e-58 -104.243335362 1.69799426863e-47
0.0002079890176 0.0749568287 160.989614966 -39.5585719749 -156.053756587 0 -195.861476756 0 -195.919035702 195.861476756 -90 -39.5585719749 39.8077201689 56.1207198987 134.820136454 -135.179863546 3.7284390688e-65 -3.28622819808e-72 -1.29564349396e-71 1.33666937615e-71 -104.224465167 4.82878944338e-61
0.0002079890176 0.075 161.093354401 -39.5377904533 -156.166038204 0 -195.95418607 0 -196.003331969 195.95418607 -90 -39.5377904533 39.7881478658 56.0921882681 134.819171587 -135.180828413 1.72464982039e-81 -1.26608286179e-88 -4.99793621219e-88 5.15580567846e-88 -104.207487117 2.23651578585e-77
1e-05 0.075043171299 160.891123733 -39.3900762509 -155.994791512 0 -195.65094651 0 -195.635456067 195.65094651 -90 -39.3900762509 39.6561549986 55.8944428066 134.807136353 -135.192863647 1.41038018587e-96 -3.13514902125e-104 -1.24170079065e-103 1.28066876434e-103 -104.171460888 1.82545234311e-92
1e-05 0.075099919371 161.018756067 -39.364716681 -156.13282116 0 -195.765068093 0 -195.74591005 195.765068093 -90 -39.364716681 39.6322469327 55.8596089927 134.805963226 -135.194036774 1.41001481216e-96 -4.09830122833e-104 -1.62568571202e-103 1.67654849947e-103 -104.150689147 1.82787517757e-92
1e-05 0.075174028629 161.184812567 -39.3317274382 -156.312370801 0 -195.913535577 0 -195.890036589 195.913535577 -90 -39.3317274382 39.6011647769 55.8143085218 134.804421266 -135.195578734 1.40940462568e-96 -5.31412589971e-104 -2.11222536878e-103 2.17804858855e-103 -104.12371864 1.83085542577e-92