TITLE = "Electromagnetic Field"
VARIABLES = X Y E ER EI EvR EvI EvR' EvI' Ev EvPhase EpR EpI Ep EpPhase EpToEvPhaseShift elConductivity Jr Ji J Jphase QJ
ZONE N=276, E=242, F=FEPOINT, ET=QUADRILATERAL
0.87995757358 0.019777515598 2.97873800489 -0.766858214767 -2.87833434128 0 -3.23367122187 0 -3.22091293891 3.23367122187 -90 -0.766858214767 0.355336880587 0.845183897304 155.138544663 -114.861455337 0.149002183669 -3.68104843948e-09 -1.38164890605e-08 1.42984435367e-08 -104.918451791 0.661039255298
0.88000639129 0.019714926037 2.97453772816 -0.765680038975 -2.87430143896 0 -3.22910292955 0 -3.20997698327 3.22910292955 -90 -0.765680038975 0.35480149059 0.843889815035 155.137894297 -114.862105703 0.114235784055 -2.68273191652e-09 -1.00701510709e-08 1.04213719462e-08 -104.916518121 0.505895747495
0.88004707272 0.01966276807 2.96598388752 -0.763281062886 -2.86608835029 0 -3.21979963146 0 -3.20086738948 3.21979963146 -90 -0.763281062886 0.35371128117 0.841254807691 155.136570371 -114.863429629 0.0551586581619 -1.0740057873e-09 -4.03263902197e-09 4.17320810949e-09 -104.912578473 0.24283269101
0.88008097391 0.019619303097 2.95885838383 -0.761283379763 -2.8592464996 0 -3.2120498243 0 -3.19327863199 3.2120498243 -90 -0.761283379763 0.352803324699 0.839060528373 155.135468558 -114.864531442 0.0257649006354 -4.16956194287e-10 -1.56594314296e-09 1.62050313058e-09 -104.909293373 0.112873728267
0.8801092249 0.019583082286 2.95292233803 -0.759619661057 -2.85354661797 0 -3.20559369539 0 -3.18695645238 3.20559369539 -90 -0.759619661057 0.352047077421 0.837233046542 155.134551417 -114.865448583 0.0111678855861 -1.5056654974e-10 -5.65586950922e-10 5.85285302277e-10 -104.906554367 0.0487267811353
0.88013276739 0.019552898277 2.94797693439 -0.758233935297 -2.84879786968 0 -3.20021500707 0 -3.18168920883 3.20021500707 -90 -0.758233935297 0.351417137393 0.835710898047 155.133787863 -114.866212137 0.00427153468561 -4.80998413954e-11 -1.80711301065e-10 1.87003125861e-10 -104.904270873 0.0185743625351
0.88015238613 0.019527744936 2.94385666916 -0.757079654681 -2.84484138101 0 -3.19573375322 0 -3.17730069978 3.19573375322 -90 -0.757079654681 0.350892372208 0.834442964152 155.133152081 -114.866847919 0.00134519629629 -1.26847217455e-11 -4.76630019836e-11 4.93220429841e-11 -104.902367273 0.00583307875621
0.88016873508 0.019506783818 2.94042374267 -0.756118094936 -2.84154486356 0 -3.19200005977 0 -3.17364420641 3.19200005977 -90 -0.756118094936 0.350455196205 0.833386715787 155.13262262 -114.86737738 0.00031698697352 -2.50718377301e-12 -9.42183969885e-12 9.74971967741e-12 -104.90078046 0.00137131176405
0.88018235921 0.01948931622 2.93873501245 -0.755645125892 -2.8399232238 0 -3.19016337631 0 -3.17059754352 3.19016337631 -90 -0.755645125892 0.350240152507 0.832867168708 155.132362235 -114.867637765 8.4244638728e-05 -5.65626404621e-13 -2.12578035302e-12 2.19974438035e-12 -104.899999673 0.000363775235905
0.88021601322 0.020109587721 3.02287277012 -0.775762689818 -2.92163516433 0 -3.28141220694 0 -3.27062266266 3.28141220694 -90 -0.775762689818 0.359777042612 0.855129973339 155.119448265 -114.880551735 0.303799468013 -9.14280768239e-09 -3.44331440222e-08 3.56262871988e-08 -104.870247705 1.38802328066
0.88027344164 0.020033615061 3.00560240575 -0.772009784967 -2.90476250487 0 -3.26271043804 0 -3.25738203012 3.26271043804 -90 -0.772009784967 0.357947933176 0.850955844683 155.124902028 -114.875097972 0.205711188924 -5.70607226265e-09 -2.14767060488e-08 2.22217961197e-08 -104.883783217 0.93218853419
0.88032129866 0.019970304511 2.99098703965 -0.76857167267 -2.89055343062 0 -3.24686399513 0 -3.24635342533 3.24686399513 -90 -0.76857167267 0.35631056451 0.847147955132 155.127554339 -114.872445661 0.11245945615 -2.65109352424e-09 -9.96973018279e-09 1.03161930788e-08 -104.890050918 0.503479424229
0.88036117951 0.01991754572 2.98239679929 -0.766171482512 -2.88230290525 0 -3.23752161266 0 -3.23716657051 3.23752161266 -90 -0.766171482512 0.355218707413 0.844511156722 155.126269846 -114.873730154 0.0543188704321 -1.06174183351e-09 -3.99391150148e-09 4.13262972371e-09 -104.886218375 0.241755529318
0.88039441355 0.01987358006 2.97524094713 -0.764172752572 -2.87542985163 0 -3.22973921683 0 -3.22951339165 3.22973921683 -90 -0.764172752572 0.354309365198 0.84231534764 155.12520087 -114.87479913 0.0253563767 -4.11948081596e-10 -1.54996437886e-09 1.6037740926e-09 -104.883022344 0.11230102581
0.88042210859 0.01983694201 2.9692796003 -0.762508137107 -2.86970396368 0 -3.22325591786 0 -3.2231375017 3.22325591786 -90 -0.762508137107 0.353551954182 0.840486565065 155.124311085 -114.875688915 0.0109724266603 -1.48515549639e-10 -5.58898560393e-10 5.78294509188e-10 -104.880357431 0.048397836137
0.88044518778 0.019806410302 2.96431310511 -0.761121647078 -2.86493354076 0 -3.21785457881 0 -3.21782548183 3.21785457881 -90 -0.761121647078 0.352921038048 0.838963314543 155.123570327 -114.876429673 0.00418403700336 -4.73027222849e-11 -1.78038433211e-10 1.84215195645e-10 -104.87813559 0.018392435649
0.88046442045 0.019780967212 2.96017525846 -0.759966717726 -2.86095898805 0 -3.21335444301 0 -3.21339964661 3.21335444301 -90 -0.759966717726 0.35239545496 0.837694449648 155.122953546 -114.877046454 0.00131114047984 -1.24133482472e-11 -4.67272126637e-11 4.834794828e-11 -104.876283302 0.00574715038778
0.88048044767 0.019759764637 2.95672767738 -0.759004609175 -2.8576474161 0 -3.20960501032 0 -3.20971203965 3.20960501032 -90 -0.759004609175 0.351957594222 0.836637416682 155.122439925 -114.877560075 0.000306679574033 -2.43536228352e-12 -9.1682473226e-12 9.48618822356e-12 -104.874739204 0.00134102018614
0.88049380368 0.019742095825 2.9590569536 -0.759167126096 -2.86001427481 0 -3.21210112798 0 -3.20663944304 3.21210112798 -90 -0.759167126096 0.352086853173 0.836839230671 155.119086991 -114.880913009 5.92172597643e-05 -3.96662520969e-13 -1.49348651056e-12 1.54526489848e-12 -104.86600003 0.000258527246978
0.88050493369 0.019727371814 2.96773898285 -0.760420222922 -2.86866445481 0 -3.22145427429 0 -3.20407922967 3.22145427429 -90 -0.760420222922 0.352789819481 0.838271777029 155.111500012 -114.888499988 4.26448464756e-06 -2.38178831311e-14 -8.98498410298e-14 9.29531359881e-14 -104.846409845 1.87908447004e-05
0.88051420871 0.019715101805 2.96573612816 -0.759863523854 -2.86673999633 0 -3.21927617598 0 -3.20194591556 3.21927617598 -90 -0.759863523854 0.352536179654 0.837660034174 155.111212411 -114.888787589 2.48317764219e-07 -1.15730329005e-15 -4.36605909742e-15 4.51683771542e-15 -104.845540287 1.09261435391e-06
0.88052193788 0.019704876798 2.96406722694 -0.759399683279 -2.86513640976 0 -3.21746125115 0 -3.20016829106 3.21746125115 -90 -0.759399683279 0.352324841387 0.83715032869 155.110972836 -114.889027164 9.31784760161e-09 -3.62085816739e-17 -1.36608479485e-16 1.41325645423e-16 -104.84481552 4.09499242407e-08
0.88052837886 0.019696355959 2.96267657656 -0.75901320186 -2.86380017747 0 -3.21594892329 0 -3.19868703235 3.21594892329 -90 -0.75901320186 0.35214874582 0.83672562993 155.110773253 -114.889226747 2.27096768592e-10 -7.37179135094e-19 -2.78137048481e-18 2.87740418624e-18 -104.844211453 9.97048944507e-10
0.88053374634 0.019689255259 2.96151777101 -0.75869117034 -2.86268671285 0 -3.21468872598 0 -3.19745271605 3.21468872598 -90 -0.75869117034 0.352002013134 0.836371752992 155.11060698 -114.88939302 2.13778092831e-17 -5.77769134792e-26 -2.18000164366e-25 2.25526591325e-25 -104.843707997 9.37780096927e-17
0.88053821925 0.01968333801 2.96055214814 -0.758422835959 -2.86175886889 0 -3.21363861424 0 -3.196424165 3.21363861424 -90 -0.758422835959 0.351879745347 0.836076882404 155.11046845 -114.88953155 1.04710986956e-20 -2.35663828547e-29 -8.89220175796e-29 9.19918453521e-29 -104.843288405 4.5901156674e-20
0.88054194667 0.019678406968 2.96007721948 -0.758290862343 -2.86130252042 0 -3.21312213085 0 -3.19556707087 3.21312213085 -90 -0.758290862343 0.351819610435 0.83593185739 155.110400322 -114.889599678 1.22635204784e-23 -2.29891557637e-32 -8.67463035565e-32 8.9740862841e-32 -104.843082017 5.3726833617e-23
0.88054028681 0.020357340519 3.03880483315 -0.77848326734 -2.9373962338 0 -3.29860820408 0 -3.30546870311 3.29860820408 -90 -0.77848326734 0.361211970288 0.858201788345 155.108995625 -114.891004375 0.295542922066 -8.92482014412e-09 -3.3673637971e-08 3.48362823673e-08 -104.843701538 1.36420893439
0.88059656605 0.020280498798 3.03370005246 -0.777066783924 -2.93249062062 0 -3.29305705828 0 -3.29211803235 3.29305705828 -90 -0.777066783924 0.360566437669 0.856645181567 155.108283712 -114.891716288 0.225188431131 -6.46781124252e-09 -2.44052598647e-08 2.52477608621e-08 -104.841572415 1.0372840289
0.88064346542 0.02021646403 3.0233009767 -0.774181704052 -2.92249714114 0 -3.28174868558 0 -3.28099764976 3.28174868558 -90 -0.774181704052 0.359251544435 0.853474666924 155.106834111 -114.893165889 0.107711384486 -2.55801205605e-09 -9.65533353637e-09 9.98843894729e-09 -104.837232347 0.492638935743
0.88068254823 0.020163101724 3.0146388905 -0.771779428977 -2.91417265067 0 -3.27232919364 0 -3.27173425849 3.27232919364 -90 -0.771779428977 0.358156542972 0.850834660745 155.105627917 -114.894372083 0.0519636143881 -1.023347859e-09 -3.86368113388e-09 3.99690831907e-09 -104.83361196 0.236267958739
0.88071511724 0.020118633135 3.00742313277 -0.769778895994 -2.90723794341 0 -3.2644825019 0 -3.26401726117 3.2644825019 -90 -0.769778895994 0.357244558486 0.848636109682 155.104624067 -114.895375933 0.0241716575541 -3.95691990099e-10 -1.49426602017e-09 1.54576957842e-09 -104.830592466 0.109364951395
0.88074225808 0.020081575978 3.00141184119 -0.768112733181 -2.90146066626 0 -3.25794559697 0 -3.25758816295 3.25794559697 -90 -0.768112733181 0.356484930709 0.846804995163 155.103788462 -114.896211538 0.0103970978678 -1.41814279126e-10 -5.35631323847e-10 5.54086878211e-10 -104.828074498 0.046849318042
0.88076487545 0.020050695013 2.99640370927 -0.766724923176 -2.8966474113 0 -3.25249956855 0 -3.25223178413 3.25249956855 -90 -0.766724923176 0.355852157251 0.845279769415 155.10309279 -114.89690721 0.00392821452234 -4.47581525208e-11 -1.69074685503e-10 1.74898678701e-10 -104.825975004 0.0176399236544
0.88078372325 0.020024960876 2.99223115321 -0.765568872808 -2.89263715882 0 -3.24796217834 0 -3.24776897081 3.24796217834 -90 -0.765568872808 0.355325019517 0.844009236497 155.102513534 -114.897486466 0.00121427642176 -1.15873119608e-11 -4.37760382571e-11 4.52836366172e-11 -104.824224605 0.00543707547173
0.88079942976 0.020003515762 2.98875464038 -0.764605815968 -2.88929583371 0 -3.24418169243 0 -3.24405053972 3.24418169243 -90 -0.764605815968 0.354885858717 0.842950798793 155.10203115 -114.89796885 0.000278567859512 -2.22960421503e-12 -8.42397891882e-12 8.71404448622e-12 -104.822765372 0.00124425284429
0.88081251851 0.019985644834 2.98585797389 -0.763803489633 -2.88651177833 0 -3.24103175341 0 -3.24095225018 3.24103175341 -90 -0.763803489633 0.354519975083 0.842069003145 155.101629396 -114.898370604 4.22087336853e-05 -2.83048673211e-13 -1.06948974196e-12 1.10631148806e-12 -104.821548951 0.00018812590365
0.88082342581 0.019970752393 2.98344438254 -0.763135038053 -2.88419199806 0 -3.23840712832 0 -3.23837062172 3.23840712832 -90 -0.763135038053 0.354215130264 0.84133433739 155.101294764 -114.898705236 3.88997916669e-06 -2.17989975292e-14 -8.23704329773e-14 8.52061382281e-14 -104.820534996 1.73054652018e-05
0.88083251522 0.019958342026 2.98143326331 -0.762578101897 -2.88225903284 0 -3.23622016622 0 -3.23621945907 3.23622016622 -90 -0.762578101897 0.35396113338 0.840722229886 155.101016017 -114.898983983 2.23375582058e-07 -1.04444694042e-15 -3.94672222292e-15 4.08258362719e-15 -104.819689845 9.9215857546e-07
0.88084008973 0.019948000054 2.9797574746 -0.762114062678 -2.88064835726 0 -3.2343978547 0 -3.23442695851 3.2343978547 -90 -0.762114062678 0.353749497439 0.8402122195 155.100783807 -114.899216193 8.27456253663e-09 -3.22567294182e-17 -1.21893968913e-16 1.26089807027e-16 -104.818985421 3.67031405451e-08
0.88084640182 0.019939381743 2.97836108309 -0.76172741479 -2.87930621614 0 -3.23287936977 0 -3.23293330156 3.23287936977 -90 -0.76172741479 0.353573153629 0.839787265732 155.100590355 -114.899409645 1.99230352551e-10 -6.48721331231e-19 -2.45147976112e-18 2.53586152362e-18 -104.818398312 8.82711730524e-10
0.8808516619 0.019932199818 2.97719749113 -0.76140524373 -2.87818782551 0 -3.23161403937 0 -3.23168865258 3.23161403937 -90 -0.76140524373 0.353426213862 0.839433175458 155.100429184 -114.899570816 1.75239424191e-17 -4.74941236054e-26 -1.79458023351e-25 1.85636420428e-25 -104.817908994 7.75105868309e-17
0.88085604529 0.01992621488 2.97622788064 -0.761136792954 -2.87725587768 0 -3.23055965128 0 -3.23065149032 3.23055965128 -90 -0.761136792954 0.353303773601 0.839138127026 155.100294901 -114.899705099 8.44736593382e-21 -1.90637698625e-29 -7.20327219527e-29 7.45126929888e-29 -104.817501184 3.73296789522e-20
0.88085969812 0.019921227432 2.9757509916 -0.76100476218 -2.87679751167 0 -3.23004106561 0 -3.22978721979 3.23004106561 -90 -0.76100476218 0.353243553944 0.838993014659 155.10022886 -114.89977114 9.74314480916e-24 -1.83131822748e-32 -6.91960107406e-32 7.15783592854e-32 -104.817300589 4.30218790976e-23
0.88086750848 0.020601186632 3.07037791333 -0.783835361682 -2.96863953233 0 -3.3326822509 0 -3.33951312945 3.3326822509 -90 -0.783835361682 0.364042718567 0.864248228217 155.088102107 -114.911897893 0.283194305485 -8.61028048553e-09 -3.26090503442e-08 3.37266561299e-08 -104.790877858 1.33470564913
0.8809226217 0.020523498506 3.06523257423 -0.782418256307 -2.96369202595 0 -3.32708761857 0 -3.3260575738 3.32708761857 -90 -0.782418256307 0.363395592615 0.862690390156 155.087436164 -114.912563836 0.215963327728 -6.24453716597e-09 -2.36513044118e-08 2.44617777574e-08 -104.788871577 1.01572134111
0.88096854939 0.020458758401 3.05475082724 -0.779531854908 -2.95361317004 0 -3.31569060415 0 -3.31484970244 3.31569060415 -90 -0.779531854908 0.362077434118 0.859517309546 155.086080139 -114.913919861 0.103518115582 -2.47530834933e-09 -9.37813581782e-09 9.6993093809e-09 -104.784781558 0.483441716318
0.88100682246 0.020404808313 3.04601979799 -0.777128378679 -2.9452175092 0 -3.30619718652 0 -3.30551334504 3.30619718652 -90 -0.777128378679 0.360979677318 0.856875059928 155.084951756 -114.915048244 0.0499034139579 -9.89631713261e-10 -3.75033232763e-09 3.87870682119e-09 -104.781369088 0.231693959175
0.88103871668 0.020359849907 3.03874655258 -0.775126774988 -2.938223477 0 -3.29828884977 0 -3.29773550218 3.29828884977 -90 -0.775126774988 0.360065372763 0.854674565913 155.084012625 -114.915987375 0.0231452495883 -3.8157317228e-10 -1.44631823228e-09 1.49580579412e-09 -104.778522532 0.106938066269
0.8810652952 0.020322384568 3.03268733001 -0.773459671229 -2.93239675098 0 -3.29170054584 0 -3.29125567083 3.29170054584 -90 -0.773459671229 0.359303794865 0.852841781011 155.083230865 -114.916769135 0.00990280653107 -1.36044993481e-10 -5.15753922773e-10 5.33395169734e-10 -104.776148445 0.0455690428033
0.88108744397 0.020291163453 3.02763923845 -0.772071043069 -2.92754228063 0 -3.28621166524 0 -3.28585699505 3.28621166524 -90 -0.772071043069 0.35866938461 0.851315127449 155.082580001 -114.917419999 0.00370994161679 -4.25813132708e-11 -1.61450495678e-10 1.66971364154e-10 -104.774168684 0.0170142749837
0.88110590128 0.020265145856 3.02343337117 -0.770914287216 -2.92349767689 0 -3.28163855164 0 -3.28135892022 3.28163855164 -90 -0.770914287216 0.358140874753 0.850043379754 155.082038039 -114.917961961 0.00113217384676 -1.08844430214e-11 -4.12738633038e-11 4.26849301252e-11 -104.772517942 0.00517766082672
0.88112128237 0.020243464526 3.01992909078 -0.769950625877 -2.92012772199 0 -3.27782828681 0 -3.2776110954 3.27782828681 -90 -0.769950625877 0.357700564821 0.848983912269 155.081586701 -114.918413299 0.000254952071775 -2.05585780987e-12 -7.79651330286e-12 8.06301333843e-12 -104.771141671 0.00116316424627
0.88113409994 0.020225396751 3.0170092794 -0.769147784314 -2.9173198063 0 -3.27465352596 0 -3.27448830443 3.27465352596 -90 -0.769147784314 0.357333719655 0.848101246396 155.081210794 -114.918789206 3.77023813726e-05 -2.54694820449e-13 -9.65956817708e-13 9.98970582842e-13 -104.769994325 0.000171655600402
0.88114478125 0.020210340272 3.01457639662 -0.768478895263 -2.91498014061 0 -3.27200821139 0 -3.27188625381 3.27200821139 -90 -0.768478895263 0.357028070776 0.847365846915 155.080897684 -114.919102316 3.38641978653e-06 -1.91153897978e-14 -7.25012778704e-14 7.49788939923e-14 -104.769037889 1.53908904697e-05
0.88115368235 0.020197793206 3.01254919913 -0.767921589048 -2.91303060364 0 -3.26980400562 0 -3.26971806924 3.26980400562 -90 -0.767921589048 0.356773401979 0.846753122192 155.080636861 -114.919363139 1.90079464398e-07 -8.95212205163e-16 -3.39554868308e-15 3.51157489052e-15 -104.768240638 8.6260744671e-07
0.88116109992 0.020187337317 3.0108600081 -0.767457237183 -2.91140611559 0 -3.26796732018 0 -3.26791138158 3.26796732018 -90 -0.767457237183 0.356561204594 0.846242592949 155.080419579 -114.919580421 6.89859348897e-09 -2.70880721757e-17 -1.0274970341e-16 1.06260375744e-16 -104.767576113 3.12679576374e-08
0.88116728124 0.020178624077 3.00945244694 -0.767070326085 -2.91005246374 0 -3.26643685575 0 -3.26640590065 3.26643685575 -90 -0.767070326085 0.356384392007 0.845817203992 155.080238561 -114.919761439 1.62922707927e-10 -5.34338442168e-19 -2.02690882555e-18 2.09615787366e-18 -104.767022237 7.37689980015e-10
0.88117243233 0.020171363043 3.00827954877 -0.766747934233 -2.90892448316 0 -3.26516154434 0 -3.26515139721 3.26516154434 -90 -0.766747934233 0.356237061185 0.845462749572 155.080087746 -114.919912254 1.26607451632e-17 -3.4568937368e-26 -1.31128547461e-25 1.35608668709e-25 -104.766560599 5.72612553829e-17
0.88117672491 0.020165312182 3.00730218363 -0.766479298336 -2.90798454458 0 -3.26409883927 0 -3.26410602218 3.26409883927 -90 -0.766479298336 0.356114294696 0.845167396514 155.079962089 -114.920037911 5.9207089481e-21 -1.34618390421e-29 -5.10651175983e-29 5.28097329724e-29 -104.766175845 2.6757570879e-20
0.88118030206 0.020160269797 3.00682147893 -0.76634717593 -2.90752224689 0 -3.26357616124 0 -3.26323490703 3.26357616124 -90 -0.76634717593 0.356053914343 0.845022133688 155.079900291 -114.920099709 6.62529259222e-24 -1.25468604696e-32 -4.75950274401e-32 4.92210404444e-32 -104.765986592 2.99226666132e-23
0.88119619251 0.02084305214 3.10107999656 -0.788929893592 -2.99904730992 0 -3.36580621695 0 -3.37309352668 3.36580621695 -90 -0.788929893592 0.366758907031 0.870012929876 155.067188944 -114.932811056 0.272884937729 -8.35105006453e-09 -3.17444495058e-08 3.28245386216e-08 -104.738452981 1.31186669157
0.8812501162 0.020764550185 3.09589580348 -0.787512664878 -2.99405955702 0 -3.360169966 0 -3.35953975303 3.360169966 -90 -0.787512664878 0.36611040898 0.868454405296 155.06656867 -114.93343133 0.208314483125 -6.06196003986e-09 -2.30447365527e-08 2.382870875e-08 -104.736566965 0.999359236555
0.8812950526 0.020699131889 3.0853348651 -0.784625959586 -2.9838986865 0 -3.34868812281 0 -3.34824994222 3.34868812281 -90 -0.784625959586 0.364789436309 0.86527987035 155.065305633 -114.934694367 0.100131767566 -2.40997623205e-09 -9.1642175282e-09 9.47580534082e-09 -104.732721748 0.476992072043
0.88133249961 0.020644616643 3.0765377903 -0.782222128951 -2.97543465446 0 -3.33912395299 0 -3.33884523855 3.33912395299 -90 -0.782222128951 0.363689298532 0.862636301848 155.064254625 -114.935745375 0.048280929204 -9.63795510954e-10 -3.66580260798e-09 3.79038434503e-09 -104.729512814 0.228650321522
0.88136370544 0.02059918727 3.06920946978 -0.780220159125 -2.96838362799 0 -3.33115661245 0 -3.33101039633 3.33115661245 -90 -0.780220159125 0.362772984462 0.860434633806 155.063379907 -114.936620093 0.0223538360274 -3.70995788839e-10 -1.41135542347e-09 1.45930203815e-09 -104.726835536 0.105349278412
0.88138971031 0.02056132946 3.0631043263 -0.778552700951 -2.96250939492 0 -3.32451910904 0 -3.32448303514 3.32451910904 -90 -0.778552700951 0.362009714124 0.85860081827 155.062651787 -114.937348213 0.00952731740801 -1.31775471004e-10 -5.0138325233e-10 5.1841102866e-10 -104.724602273 0.0447183602826
0.88141138103 0.020529781285 3.05801795021 -0.777163742999 -2.95761532748 0 -3.31898920837 0 -3.31904473002 3.31898920837 -90 -0.777163742999 0.361373880898 0.857073269264 155.062045603 -114.937954397 0.00354546603268 -4.09740228532e-11 -1.55918765394e-10 1.61212707815e-10 -104.72273969 0.0165849830483
0.88142943996 0.020503491139 3.05378016745 -0.776006688282 -2.95353772089 0 -3.31438189723 0 -3.31451361629 3.31438189723 -90 -0.776006688282 0.360844176341 0.8558007498 155.061540865 -114.938459135 0.00107053597166 -1.0363651739e-11 -3.94407729963e-11 4.07796540421e-11 -104.721186472 0.00499350356427
0.88144448907 0.020481582684 3.05024928263 -0.775042761038 -2.95014025992 0 -3.31054312444 0 -3.31073824868 3.31054312444 -90 -0.775042761038 0.360402864525 0.85474062122 155.061120545 -114.938879455 0.000237317771858 -1.92696606968e-12 -7.33397097379e-12 7.58289785674e-12 -104.71989138 0.00110428318386
0.88145703 0.020463325638 3.04730729546 -0.7742396862 -2.9473094202 0 -3.30734460024 0 -3.30759249813 3.30734460024 -90 -0.7742396862 0.360035180046 0.853857391967 155.060770487 -114.939229513 3.43870257641e-05 -2.33880467665e-13 -8.90190764141e-13 9.20401997708e-13 -104.71881162 0.000159672985843
0.88146748077 0.020448111433 3.0448559282 -0.773570594387 -2.94495064871 0 -3.30467947724 0 -3.30497130971 3.30467947724 -90 -0.773570594387 0.359728828535 0.853121514058 155.06047892 -114.93952108 3.02584298227e-06 -1.71942011821e-14 -6.54469885851e-14 6.7667937546e-14 -104.717911459 1.40247302857e-05
0.88147618975 0.020435432929 3.04281332425 -0.773013113489 -2.94298518904 0 -3.30245876105 0 -3.30278717367 3.30245876105 -90 -0.773013113489 0.359473572016 0.852508384533 155.06023605 -114.93976395 1.6696577175e-07 -7.91552696953e-16 -3.01302539839e-15 3.11526557923e-15 -104.717161074 7.72693886677e-07
0.88148344723 0.020424867509 3.04111129378 -0.772548612244 -2.94134743241 0 -3.30060831582 0 -3.30096719067 3.30060831582 -90 -0.772548612244 0.359260883416 0.851997513886 155.060033731 -114.939966269 5.97363291165e-09 -2.36101092262e-17 -8.98738185791e-17 9.29233136151e-17 -104.716535577 2.76092186226e-08
0.88148949513 0.020416062993 3.03969303319 -0.772161574114 -2.93998272424 0 -3.29906638477 0 -3.29945062882 3.29906638477 -90 -0.772161574114 0.359083660526 0.851571837707 155.059865183 -114.940134817 1.3926120051e-10 -4.59705868896e-19 -1.74994508933e-18 1.80931974508e-18 -104.716014207 6.42943621176e-10
0.88149453504 0.020408725895 3.03851121532 -0.771839074018 -2.9388455271 0 -3.29778151389 0 -3.29818689002 3.29778151389 -90 -0.771839074018 0.35893598679 0.851217141353 155.059724763 -114.940275237 9.94589036494e-18 -2.73297757672e-26 -1.04027025641e-25 1.07557151888e-25 -104.715579649 4.58518819682e-17
0.88149873497 0.020402611648 3.03752641335 -0.771570346027 -2.93789790471 0 -3.29671083843 0 -3.29713381813 3.29671083843 -90 -0.771570346027 0.358812933725 0.850921584625 155.059607771 -114.940392229 4.56769338841e-21 -1.04515443853e-29 -3.9782424719e-29 4.11324253904e-29 -104.71521746 2.1039902145e-20
0.88150223492 0.020397516441 3.03704205244 -0.771438178267 -2.93743182941 0 -3.29618424184 0 -3.29625628821 3.29618424184 -90 -0.771438178267 0.358752412437 0.850776221579 155.059550234 -114.940449766 5.02147284288e-24 -9.56975381636e-33 -3.64259135278e-32 3.76620184354e-32 -104.715039299 2.31133764431e-23
0.88153304343 0.021073413186 3.13066579939 -0.793704928185 -3.02838221247 0 -3.39771369871 0 -3.404565495 3.39771369871 -90 -0.793704928185 0.369331486238 0.875427487206 155.04625113 -114.95374887 0.259867484075 -8.0019831715e-09 -3.05300993362e-08 3.15613514336e-08 -104.686378554 1.27320732378
0.88158578764 0.020994083691 3.1254440174 -0.792287949199 -3.02335543829 0 -3.39203722268 0 -3.3909129306 3.39203722268 -90 -0.792287949199 0.368681784392 0.873868684692 155.045675928 -114.954324072 0.198494856843 -5.8116049464e-09 -2.21746470016e-08 2.29235649408e-08 -104.684610012 0.970484472338
0.88162974115 0.020927975779 3.11480646299 -0.789401703699 -3.01311504624 0 -3.38047338897 0 -3.37954070226 3.38047338897 -90 -0.789401703699 0.367358342729 0.870693532099 155.044504624 -114.955495376 0.0955199853915 -2.31340348682e-09 -8.82933985313e-09 9.12738159917e-09 -104.68100399 0.463743270848
0.88166636908 0.020872885852 3.10594548284 -0.786998162 -3.00458471234 0 -3.37084082853 0 -3.37006725352 3.37084082853 -90 -0.786998162 0.366256116187 0.86804935018 155.04352986 -114.95647014 0.0459679979199 -9.23482445325e-10 -3.52533634575e-09 3.64428578067e-09 -104.677994083 0.221871010598
0.88169689235 0.02082697758 3.0985638677 -0.78499636862 -2.99747841107 0 -3.36281645147 0 -3.36217507974 3.36281645147 -90 -0.78499636862 0.3653380404 0.86584710367 155.042718527 -114.957281473 0.0211887718124 -3.53942044498e-10 -1.35139334815e-09 1.3969750686e-09 -104.675482465 0.101774055714
0.88172232841 0.020788720687 3.09241428335 -0.78332901336 -2.99155809853 0 -3.3561313862 0 -3.3555999117 3.3561313862 -90 -0.78332901336 0.364573287673 0.864012760002 155.042043118 -114.957956882 0.00896579115976 -1.24828136865e-10 -4.76678012913e-10 4.92751499209e-10 -104.673387131 0.0428901115411
0.88174352513 0.020756839942 3.08729085378 -0.781940111176 -2.98662562 0 -3.35056182957 0 -3.35012174596 3.35056182957 -90 -0.781940111176 0.363936209572 0.862484739634 155.041480778 -114.958519222 0.0033003747225 -3.83984638223e-11 -1.46648188614e-10 1.51592010963e-10 -104.671639413 0.0157346908222
0.88176118906 0.020730272655 3.08302217868 -0.780783082276 -2.98251599511 0 -3.34592145621 0 -3.34555740042 3.34592145621 -90 -0.780783082276 0.363405461109 0.86121180587 155.041012516 -114.958987484 0.000980796480498 -9.55977935967e-12 -3.65131703667e-11 3.77438905225e-11 -104.670181871 0.00466266496638
0.881775909 0.020708133249 3.07946554001 -0.779819162423 -2.97909184566 0 -3.34205512065 0 -3.34175432941 3.34205512065 -90 -0.779819162423 0.362963274989 0.860151317374 155.040622549 -114.959377451 0.000212623987525 -1.73820082521e-12 -6.63942218952e-12 6.86318281418e-12 -104.668966484 0.00100834514563
0.88178817562 0.020689683743 3.0765020852 -0.779016084259 -2.97623876196 0 -3.33883362102 0 -3.33858548547 3.33883362102 -90 -0.779016084259 0.362594859064 0.859267778374 155.040297752 -114.959702248 2.99487475098e-05 -2.05045527113e-13 -7.83250942772e-13 8.09645499756e-13 -104.667953126 0.000141728185867
0.8817983978 0.020674309156 3.07403282393 -0.778346983183 -2.97386145121 0 -3.3361493473 0 -3.33594504781 3.3361493473 -90 -0.778346983183 0.362287896089 0.858531635639 155.040027212 -114.959972788 2.55975366739e-06 -1.46401799158e-14 -5.59258011146e-14 5.78102996565e-14 -104.667108292 1.20915374917e-05
0.88180691629 0.020661497 3.07197530407 -0.77778948991 -2.97188053911 0 -3.33391266772 0 -3.33374486723 3.33391266772 -90 -0.77778948991 0.362032128606 0.857918280603 155.039801848 -114.960198152 1.37680396355e-07 -6.56911331003e-16 -2.50948668608e-15 2.59404264102e-15 -104.666404009 6.49355456018e-07
0.88181401502 0.020650820203 3.07026084152 -0.777324975305 -2.97022990409 0 -3.33204891741 0 -3.33191151149 3.33204891741 -90 -0.777324975305 0.361819013324 0.857407218893 155.039614106 -114.960385894 4.81215879871e-09 -1.91410378267e-17 -7.31228476925e-17 7.55865813609e-17 -104.665816928 2.26662971172e-08
0.88181993064 0.020641922872 3.06883221897 -0.776937923857 -2.96885446261 0 -3.33049589683 0 -3.33038380371 3.33049589683 -90 -0.776937923857 0.361641434227 0.856981381244 155.039457696 -114.960542304 1.09724785045e-10 -3.64493990851e-19 -1.39246596453e-18 1.4393810226e-18 -104.66532757 5.16258042681e-10
0.88182486032 0.02063450843 3.06764176711 -0.776615411565 -2.96770832238 0 -3.32920178581 0 -3.32911077572 3.32920178581 -90 -0.776615411565 0.361493463429 0.85662654924 155.039327383 -114.960672617 6.84201797496e-18 -1.89195682739e-26 -7.22705341865e-26 7.47059650624e-26 -104.664919685 3.21426252833e-17
0.88182896838 0.020628329728 3.06664976714 -0.77634667204 -2.96675324466 0 -3.328123407 0 -3.32804996199 3.328123407 -90 -0.77634667204 0.361370162333 0.856330878025 155.039218812 -114.960781188 3.04264984462e-21 -7.00600447041e-30 -2.67619795137e-29 2.76638353741e-29 -104.664579726 1.42815114839e-20
0.88183239177 0.02062318081 3.06616186296 -0.776214497904 -2.96628349963 0 -3.32759301837 0 -3.32716598023 3.32759301837 -90 -0.776214497904 0.361309518741 0.856185457899 155.039165417 -114.960834583 3.24107945664e-24 -6.21574426088e-33 -2.37430876871e-32 2.45432230973e-32 -104.664412504 1.52016070301e-23
0.88187006444 0.021303524686 3.1593714989 -0.798228533611 -3.05687053547 0 -3.42866166599 0 -3.43587964288 3.42866166599 -90 -0.798228533611 0.37179113052 0.880566557625 155.025325158 -114.974674842 0.248613182902 -7.69961536534e-09 -2.94852381746e-08 3.04739812554e-08 -104.634747546 1.24060795325
0.88192160062 0.021223409635 3.15411384416 -0.796812269493 -3.05180640752 0 -3.42294684483 0 -3.42213634992 3.42294684483 -90 -0.796812269493 0.371140437306 0.879007987849 155.024794564 -114.975205436 0.19004241397 -5.59573029846e-09 -2.14299340729e-08 2.21484620377e-08 -104.633093834 0.946356065805
0.88196454744 0.021156647092 3.14340316578 -0.793927428597 -3.04148988738 0 -3.41130484532 0 -3.41068841499 3.41130484532 -90 -0.793927428597 0.369814957944 0.875833254822 155.023714052 -114.976285948 0.0916161662535 -2.23176840389e-09 -8.54915207228e-09 8.83565543158e-09 -104.629721586 0.453036904468
0.88200033645 0.021101011639 3.13448118899 -0.791524959155 -3.03289607888 0 -3.40160707862 0 -3.40115180876 3.40160707862 -90 -0.791524959155 0.36871099974 0.873189319219 155.022814766 -114.977185234 0.0440433627988 -8.90062160308e-10 -3.41023672035e-09 3.52447550562e-09 -104.626906117 0.216529157545