TITLE = "Electromagnetic Field"
VARIABLES = X Y E ER EI EvR EvI EvR' EvI' Ev EvPhase EpR EpI Ep EpPhase EpToEvPhaseShift elConductivity Jr Ji J Jphase QJ
ZONE N=290, E=253, F=FEPOINT, ET=QUADRILATERAL
0.896796843 0.057941617225 8.05176200654 -1.15929127871 -7.96786766589 0 -8.69361745465 0 -8.59162130695 8.69361745465 -90 -1.15929127871 0.725749788765 1.36772403093 147.952246173 -122.047753827 16.4329540634 -2.83171001878e-05 -0.000194624863588 0.000196674084947 -98.2782075404 532.681365886
0.896796843 0.059611111113 8.16741517615 -1.15600223928 -8.08516830046 0 -8.81727978707 0 -8.83248118666 8.81727978707 -90 -1.15600223928 0.732111486615 1.36834857152 147.653511887 -122.346488113 11.6941823563 -2.03028675839e-05 -0.000141062506903 0.000142516451422 -98.1388116604 385.771810875
0.896796843 0.061331013243 8.39858265541 -1.14973066887 -8.31949151531 0 -9.06438025025 0 -9.08002658544 9.06438025025 -90 -1.14973066887 0.744888734941 1.36995999139 147.061776878 -122.938223122 4.57282906635 -8.11916623654e-06 -5.82223537663e-05 5.87858558083e-05 -97.8701132601 158.862200049
0.896796843 0.063102514093 8.63621980917 -1.14403995395 -8.56008833539 0 -9.31825518963 0 -9.33435931874 9.31825518963 -90 -1.14403995395 0.758166854241 1.37247768027 146.467489562 -123.532510438 1.43147693504 -2.6065049384e-06 -1.93525053695e-05 1.95272831818e-05 -97.6141033034 52.682875015
0.896796843 0.064926829409 8.88040781824 -1.13913911111 -8.8070239758 0 -9.57900368405 0 -9.59557864594 9.57900368405 -90 -1.13913911111 0.771979708245 1.37609622112 145.875467408 -124.124532592 0.540536065291 -1.01004928817e-06 -7.76050488642e-06 7.82597354454e-06 -97.3716120168 21.0822824125
0.896796843 0.066805200713 9.13122502827 -1.13508564587 -9.06038277416 0 -9.84672185659 0 -9.86378086355 9.84672185659 -90 -1.13508564587 0.786339082432 1.38086865053 145.287994647 -124.712005353 0.23772843486 -4.55772216392e-07 -3.61704675526e-06 3.64565495038e-06 -97.1423674537 9.80826620932
0.896796843 0.068738895813 9.25643771802 -1.13329690452 -9.18679908095 0 -9.98034748712 0 -10.1390588666 9.98034748712 -90 -1.13329690452 0.793548406172 1.38350314302 144.999817808 -125.000182192 0.14895757853 -2.90636421129e-07 -2.35597432223e-06 2.37383330002e-06 -97.0325604239 6.38146475191
0.89768718269 0.056321365872 7.79563675385 -1.15979549843 -7.70887973702 0 -8.41863397978 0 -8.32186798007 8.41863397978 -90 -1.15979549843 0.709754242763 1.35973404874 148.534827021 -121.465172979 26.940223532 -5.02232431371e-05 -0.000333821731393 0.000337578616771 -98.5559400219 818.60499104
0.89768718269 0.057941617225 7.95270225477 -1.15744997637 -7.86800147938 0 -8.58698437258 0 -8.5551695844 8.58698437258 -90 -1.15744997637 0.718982893192 1.36259643394 148.152763273 -121.847236727 20.0946429958 -3.70060317348e-05 -0.000250542829571 0.000253261793757 -98.3705420979 631.209369273
0.89768718269 0.059611111113 8.14842109537 -1.15297368585 -8.06641413792 0 -8.79646743109 0 -8.79502684532 8.79646743109 -90 -1.15297368585 0.73005329317 1.36468872826 147.658496945 -122.341503055 11.8317876475 -2.17317206364e-05 -0.000151046083952 0.000152601782104 -98.1363894259 388.510893345
0.89768718269 0.061331013243 8.37905066676 -1.14672199505 -8.30018973498 0 -9.04299629438 0 -9.04154350738 9.04299629438 -90 -1.14672199505 0.742806559396 1.36630277056 147.066466445 -122.933533555 4.64776854973 -8.73191965292e-06 -6.26364208428e-05 6.32422585514e-05 -97.8677965914 160.706124974
0.89768718269 0.063102514093 8.61613613605 -1.14104442126 -8.54022648192 0 -9.29628499848 0 -9.29482116187 9.29628499848 -90 -1.14104442126 0.75605851656 1.36881600199 146.471797823 -123.528202177 1.4535478332 -2.80033839632e-06 -2.07975719419e-05 2.09852941801e-05 -97.6118504067 53.2406958937
0.89768718269 0.064926829409 8.8597586323 -1.13615315953 -8.78658903114 0 -9.55643251298 0 -9.55495887166 9.55643251298 -90 -1.13615315953 0.769843481837 1.3724259626 145.879371611 -124.120628389 0.546593668301 -1.08045559886e-06 -8.30397913167e-06 8.37399024069e-06 -97.3694085026 21.2180923439
0.89768718269 0.066805200713 9.10999643907 -1.13210683559 -9.03936146143 0 -9.82353486863 0 -9.82205276718 9.82353486863 -90 -1.13210683559 0.7841734072 1.37718672787 145.291494696 -124.708505304 0.240028419176 -4.86772065536e-07 -3.86430649143e-06 3.89485076249e-06 -97.1402080662 9.85680254561
0.89768718269 0.068738895813 9.31946636108 -1.12841204369 -9.2508845809 0 -10.0468833342 0 -10.096195611 10.0468833342 -90 -1.12841204369 0.795998753341 1.3809314657 144.800590508 -125.199409492 0.120255400798 -2.51769678092e-07 -2.05445552875e-06 2.06982731012e-06 -96.9557617564 5.1789533479
0.89768718269 0.07072920933 9.47532584826 -1.12489277042 -9.40831633108 0 -10.2128520838 0 -10.3774763311 10.2128520838 -90 -1.12489277042 0.804535752757 1.38299006591 144.427230721 -125.572769279 0.0647108253491 -1.43730621761e-07 -1.2021262751e-06 1.21068826414e-06 -96.8181268101 2.90492718742
0.89867924682 0.054749215636 7.54411216547 -1.15881611651 -7.45458071076 0 -8.14829782917 0 -8.05677887144 8.14829782917 -90 -1.15881611651 0.693717118407 1.35059180815 149.093448471 -120.906551529 36.9144616995 -7.41560684412e-05 -0.0004770406534 0.000482770035817 -98.8359210589 1050.46797723
0.89867924682 0.056321365872 7.69728863165 -1.15720113487 -7.60978429872 0 -8.31263331338 0 -8.28257676274 8.31263331338 -90 -1.15720113487 0.702849014652 1.35393848418 148.727241442 -121.272758558 30.4270530144 -6.03927891776e-05 -0.000396148962117 0.000400727135937 -98.6484848831 897.656470335
0.89867924682 0.057941617225 7.88718583171 -1.15321216264 -7.80239866571 0 -8.51604754939 0 -8.51479639451 8.51604754939 -90 -1.15321216264 0.713648883675 1.3561854615 148.249424193 -121.750575807 21.9358620146 -4.35953769314e-05 -0.000293869660962 0.000297086604779 -98.4095363268 677.977053446
0.89867924682 0.059611111113 8.11039582662 -1.14689039743 -8.02887203803 0 -8.75480273523 0 -8.75354301395 8.75480273523 -90 -1.14689039743 0.7259306972 1.35734361935 147.668156028 -122.331843972 12.106052838 -2.46114652383e-05 -0.000171185960702 0.000172946545753 -98.1313701093 393.872610772
0.89867924682 0.061331013243 8.339948504 -1.14067989177 -8.26155101551 0 -9.00018719807 0 -8.99892008821 9.00018719807 -90 -1.14067989177 0.738636182558 1.35896429254 147.075546492 -122.924453508 4.79883617932 -9.97879810782e-06 -7.16256250552e-05 7.23175428539e-05 -97.8630034631 164.384555424
0.89867924682 0.063102514093 8.5759294664 -1.13502988557 -8.50046620794 0 -9.25230219103 0 -9.2510289587 9.25230219103 -90 -1.13502988557 0.751835983088 1.3614698589 146.480124849 -123.519875151 1.49848616451 -3.19516969203e-06 -2.3743175691e-05 2.39572468638e-05 -97.6071978678 54.3692795169
0.89867924682 0.064926829409 8.81841974188 -1.13015896103 -8.74568113934 0 -9.51124646392 0 -9.50996846874 9.51124646392 -90 -1.13015896103 0.765565324581 1.36506379991 145.886899047 -124.113100953 0.558900030826 -1.22275337863e-06 -9.40322249456e-06 9.4824074069e-06 -97.3648663457 21.4925046776
0.89867924682 0.066805200713 9.06749749201 -1.12612802174 -8.99727936608 0 -9.77711586149 0 -9.77583456292 9.77711586149 -90 -1.12612802174 0.779836495406 1.36980230286 145.298222191 -124.701777809 0.244681114074 -5.49198426734e-07 -4.36262652722e-06 4.39706649546e-06 -97.135764768 9.95421140147
0.89867924682 0.068738895813 9.32323858342 -1.12295282295 -9.25534774683 0 -10.0500028921 0 -10.0487198549 10.0500028921 -90 -1.12295282295 0.794655145281 1.37569916646 144.715637817 -125.284362183 0.108725249235 -2.50389153587e-07 -2.05135859658e-06 2.06658638755e-06 -96.9193472138 4.673057886
0.89867924682 0.07072920933 9.53636363633 -1.11988963089 -9.4703654795 0 -10.2771688326 0 -10.3287131645 10.2771688326 -90 -1.11988963089 0.806803353137 1.38026349172 144.23022023 -125.76977977 0.050831243166 -1.2070415389e-07 -1.01533167954e-06 1.02248217547e-06 -96.7451846457 2.28952516546
0.89867924682 0.072777463235 9.83209487334 -1.11620924488 -9.76851617391 0 -10.5922140974 0 -10.6158990214 10.5922140974 -90 -1.11620924488 0.82369792353 1.38724466066 143.575705701 -126.424294299 0.0147225823779 -3.73428838364e-08 -3.23960756517e-07 3.2610619768e-07 -96.5199825143 0.699735426705
0.89867924682 0.074885007389 10.1076222738 -1.11559110324 -10.045856925 0 -10.8859969482 0 -10.9103571327 10.8859969482 -90 -1.11559110324 0.840140023272 1.3965758705 143.017956784 -126.982043216 0.00318197955873 -8.27184970571e-09 -7.36233407345e-08 7.40866004876e-08 -96.3379455637 0.158850036491
0.89867924682 0.077053220104 10.2451110385 -1.11549035053 -10.1842025445 0 -11.0325817493 0 -11.2121618159 11.0325817493 -90 -1.11549035053 0.848379204792 1.40145138954 142.745423414 -127.254576586 0.000577525890941 -1.54021287155e-09 -1.4061833738e-08 1.41459331175e-08 -96.2507714813 0.0303092229663
0.89978190673 0.054749215636 7.5225784515 -1.15496876654 -7.43338640439 0 -8.12465383628 0 -8.01456156377 8.12465383628 -90 -1.15496876654 0.691267431897 1.34603251388 149.098815282 -120.901184718 37.0915198927 -7.85241897476e-05 -0.000505395080075 0.000511458929513 -98.8317506794 1049.47135734
0.89978190673 0.056321365872 7.63053561502 -1.15219683775 -7.54302025136 0 -8.24025575766 0 -8.23919602576 8.24025575766 -90 -1.15219683775 0.6972355063 1.34675032388 148.820528455 -121.179471545 32.2011774858 -6.89328337647e-05 -0.000450275667528 0.000455522982826 -98.6867829091 933.711464537
0.89978190673 0.057941617225 7.84636684047 -1.14638399737 -7.76214561053 0 -8.47128542913 0 -8.47022088964 8.47128542913 -90 -1.14638399737 0.709139818604 1.34800630599 148.25968013 -121.74031987 22.2791662523 -4.88603800394e-05 -0.000329635740036 0.000333238211912 -98.4031830124 681.5443887
0.89978190673 0.059611111113 8.06841846292 -1.14013170905 -7.98743414977 0 -8.70880920023 0 -8.70774106736 8.70880920023 -90 -1.14013170905 0.72137505046 1.34919624596 147.678125863 -122.321874137 12.406257376 -2.78340503321e-05 -0.000193764896653 0.000195754342463 -98.125464273 399.536077689
0.89978190673 0.061331013243 8.29678227412 -1.13396958556 -8.21890188088 0 -8.95293014589 0 -8.95185971795 8.95293014589 -90 -1.13396958556 0.734028265007 1.35082714212 147.084903737 -122.915096263 4.967572908 -1.13991670899e-05 -8.18815625704e-05 8.26713855487e-05 -97.8573789213 168.409089718
0.89978190673 0.063102514093 8.53154381818 -1.12835268661 -8.45657829659 0 -9.20374924078 0 -9.20267790479 9.20374924078 -90 -1.12835268661 0.747170944194 1.35332691604 146.488673217 -123.511326783 1.54962550357 -3.64616365678e-06 -2.71123965527e-05 2.73565234931e-05 -97.6017562064 55.6371785076
0.89978190673 0.064926829409 8.77278401695 -1.12350666259 -8.70052567575 0 -9.46136498981 0 -9.46029422665 9.46136498981 -90 -1.12350666259 0.760839314066 1.35690562308 145.894584838 -124.105415162 0.572841437992 -1.38296452091e-06 -1.06426885138e-05 1.07321867608e-05 -97.359571187 21.7997139938
0.89978190673 0.066805200713 9.02058090184 -1.11949500856 -8.95082698867 0 -9.72587302999 0 -9.72480442048 9.72587302999 -90 -1.11949500856 0.775046041315 1.36162185138 145.305044598 -124.694955402 0.249914449666 -6.19008981145e-07 -4.92076637358e-06 4.95955602452e-06 -97.1306012277 10.0620111003
0.89978190673 0.068738895813 9.27501022196 -1.11633423472 -9.20756879252 0 -9.99736570283 0 -9.996300933 9.99736570283 -90 -1.11633423472 0.789796910315 1.3674901097 144.721612235 -125.278387765 0.111071217501 -2.82271129938e-07 -2.31429286304e-06 2.33144683031e-06 -96.9143066408 4.72468227395
0.89978190673 0.07072920933 9.53614524878 -1.11402665691 -9.47083618871 0 -10.2759315947 0 -10.2748724618 10.2759315947 -90 -1.11402665691 0.80509540599 1.37451122081 144.145552014 -125.854447986 0.0452715820047 -1.18048436129e-07 -9.96716012285e-07 1.00368356276e-06 -96.7100753106 2.03178966384
0.89978190673 0.072777463235 9.80405634332 -1.11256830329 -9.74071125388 0 -10.5616550438 0 -10.5606034631 10.5616550438 -90 -1.11256830329 0.820943789967 1.38267968229 143.577958598 -126.422041402 0.0149726648982 -4.00481265307e-08 -3.47597027803e-07 3.498967925e-07 -96.5172822711 0.70756190798
0.89978190673 0.074885007389 10.0788104382 -1.11195160656 -10.0172721674 0 -10.8546156137 0 -10.853573624 10.8546156137 -90 -1.11195160656 0.837343446317 1.39198620178 143.019795368 -126.980204632 0.00326260187976 -8.94736817836e-09 -7.96757684915e-08 8.01766109664e-08 -96.3353101929 0.16194434074
0.89978190673 0.077053220104 10.3064926084 -1.11091706072 -10.2464355055 0 -11.0971368015 0 -11.1538573002 11.0971368015 -90 -1.11091706072 0.850701295968 1.39923883184 142.556978071 -127.443021929 0.000394482122181 -1.11129873876e-09 -1.01526348341e-08 1.02132749843e-08 -96.1887904354 0.0205877828209
0.89978190673 0.079283508704 10.6216732299 -1.10991725732 -10.5635132923 0 -11.4327090311 0 -11.4615229134 11.4327090311 -90 -1.10991725732 0.869195738804 1.40977314083 141.936016048 -128.063983952 3.76976045742e-06 -1.14037706083e-11 -1.07080277399e-10 1.07685801448e-10 -95.9991871444 0.000206783649891
0.89978190673 0.081577310105 10.7653012146 -1.11062407769 -10.7078580677 0 -11.5857964253 0 -11.7766323122 11.5857964253 -90 -1.11062407769 0.877938357561 1.41571946431 141.673946208 -128.326053792 3.34551516028e-09 -1.0421918268e-14 -1.00480823214e-13 1.01019860494e-13 -95.9215711621 1.93858736781e-07
0.90100472456 0.054749215636 7.47951310874 -1.147239753 -7.39100513617 0 -8.07736978324 0 -7.96808920736 8.07736978324 -90 -1.147239753 0.68636464707 1.3368827524 149.108997879 -120.891002121 37.440633061 -8.72080893126e-05 -0.000561848159622 0.000568575946935 -98.8230879824 1047.25202173
0.90100472456 0.056321365872 7.58684887181 -1.14452396871 -7.49999900924 0 -8.19231042753 0 -8.19144277658 8.19231042753 -90 -1.14452396871 0.692311418287 1.33763640385 148.83083472 -121.16916528 32.5600189229 -7.66915232428e-05 -0.000501458923794 0.000507291056104 -98.678551639 933.384513901
0.90100472456 0.057941617225 7.80143877081 -1.13881216048 -7.71784864697 0 -8.42201956116 0 -8.42115222704 8.42201956116 -90 -1.13881216048 0.704170914188 1.33895282508 148.27006196 -121.72993804 22.6488552602 -5.4657136614e-05 -0.000369104288964 0.000373130257264 -98.3956947299 685.010950963
0.90100472456 0.059611111113 8.02221546848 -1.13263965475 -7.94183240055 0 -8.65818777627 0 -8.65732209955 8.65818777627 -90 -1.13263965475 0.716355375715 1.34018106183 147.688224609 -122.311775391 12.7333747062 -3.14379415626e-05 -0.000219069720393 0.000221314558685 -98.1185095422 405.457803118
0.90100472456 0.061331013243 8.2492707038 -1.12653427508 -8.1719661951 0 -8.9009178056 0 -8.90005521158 8.9009178056 -90 -1.12653427508 0.728951610505 1.34182668461 147.094360629 -122.905639371 5.15521521968 -1.30177924075e-05 -9.35905989233e-05 9.44917879574e-05 -97.8507725133 172.77773411
0.90100472456 0.063102514093 8.48268995983 -1.12095707132 -8.40827835886 0 -9.15031031478 0 -9.14945231797 9.15031031478 -90 -1.12095707132 0.742031955926 1.34432332762 146.497267971 -123.502732029 1.60767939434 -4.16247084442e-06 -3.09757835381e-05 3.12542635271e-05 -97.5953853884 57.0544850864
0.90100472456 0.064926829409 8.72255404728 -1.11614143392 -8.65082980929 0 -9.40646353646 0 -9.40561174556 9.40646353646 -90 -1.11614143392 0.755633727163 1.34788824398 145.902255439 -124.097744561 0.588586210513 -1.56363130262e-06 -1.20428443732e-05 1.21439525406e-05 -97.3533921615 22.1414263408
0.90100472456 0.066805200713 8.96894085952 -1.11215380185 -8.89970286025 0 -9.66947287604 0 -9.66862899983 9.66947287604 -90 -1.11215380185 0.769770015792 1.35258274746 145.311789534 -124.688210466 0.255784861131 -6.97163258232e-07 -5.54675857226e-06 5.59040888248e-06 -97.1245949123 10.1805843649
0.90100472456 0.068738895813 9.22192602024 -1.10901153898 -9.15498373384 0 -9.93943048826 0 -9.93859634061 9.93943048826 -90 -1.10901153898 0.784446754415 1.35842214858 144.727448306 -125.272551694 0.113690547228 -3.17942112502e-07 -2.6090222719e-06 2.62832733277e-06 -96.908461179 4.78095931699
0.90100472456 0.07072920933 9.48158270559 -1.1067173875 -9.41675729635 0 -10.2164248218 0 -10.2156023275 10.2164248218 -90 -1.1067173875 0.799667525453 1.36540768167 144.150505019 -125.849494981 0.0464715930713 -1.33349032432e-07 -1.12690929424e-06 1.13477295512e-06 -96.7043822065 2.06194762621
0.90100472456 0.072777463235 9.74798121954 -1.10526768836 -9.68510545249 0 -10.5005401311 0 -10.4997313324 10.5005401311 -90 -1.10526768836 0.815434678643 1.37353415392 143.58206047 -126.41793953 0.015479024661 -4.55632011378e-08 -3.95834911373e-07 3.98448953792e-07 -96.5117351529 0.723234034628
0.90100472456 0.074885007389 10.0211884825 -1.10465514033 -9.96010626918 0 -10.7918559546 0 -10.7910630165 10.7918559546 -90 -1.10465514033 0.831749685414 1.38279254228 143.023082732 -126.976917268 0.00342673130493 -1.03423364064e-08 -9.21869815113e-08 9.27653546976e-08 -96.3299042011 0.168180887895
0.90100472456 0.077053220104 10.3012674658 -1.10487007967 -10.2418332728 0 -11.0904465553 0 -11.089671773 11.0904465553 -90 -1.10487007967 0.848613282521 1.39317121273 142.474423758 -127.525576242 0.000328507463254 -1.01830103674e-09 -9.31262367885e-09 9.36813252643e-09 -96.1582901031 0.0169549266891
0.90100472456 0.079283508704 10.5882765847 -1.10590134155 -10.5303547774 0 -11.396380326 0 -11.395626131 11.396380326 -90 -1.10590134155 0.866025548622 1.40465673309 141.936831577 -128.063168423 4.12846626298e-06 -1.31898455863e-11 -1.23918554101e-10 1.24618538634e-10 -95.9963158965 0.00022492842948
0.90100472456 0.081577310105 10.8247775567 -1.1061138537 -10.7681072786 0 -11.648215337 0 -11.7089881209 11.648215337 -90 -1.1061138537 0.880108058304 1.41354715367 141.492289524 -128.507710476 2.51965159471e-09 -8.30860185465e-15 -8.01508237576e-14 8.05803166253e-14 -95.8657658928 1.44974198476e-07
0.90100472456 0.083936091405 11.151461525 -1.1067265563 -11.0963987211 0 -11.9959324662 0 -12.0298126002 11.9959324662 -90 -1.1067265563 0.899533745065 1.42619933511 140.897471682 -129.102528318 1.98846665047e-21 -7.01511556672e-27 -6.94518586322e-26 6.98052470369e-26 -95.6966528988 1.20247946952e-19
0.90100472456 0.086361350478 11.3011854749 -1.10820987663 -11.2467179216 0 -12.1554857223 0 -12.3581465362 12.1554857223 -90 -1.10820987663 0.908767800638 1.43317411578 140.647143692 -129.352856308 9.56771440769e-33 -3.47997209289e-38 -3.53166537577e-37 3.54876913649e-37 -95.6275471863 6.10978900911e-31
0.90235800375 0.054749215636 7.43224587276 -1.13868353005 -7.34449984854 0 -8.02547585686 0 -7.91707810089 8.02547585686 -90 -1.13868353005 0.680976008318 1.32677372543 149.118992664 -120.881007336 37.8129989266 -9.6639240396e-05 -0.000623343850973 0.000630790538094 -98.8128939882 1044.33890474
0.90235800375 0.056321365872 7.53889973793 -1.13603081528 -7.45279105142 0 -8.13969062337 0 -8.13902543357 8.13969062337 -90 -1.13603081528 0.686899571945 1.32756819451 148.840979505 -121.159020495 32.9430884711 -8.51435472671e-05 -0.00055738004687 0.000563847384065 -98.6688558992 932.516631287
0.90235800375 0.057941617225 7.75212740452 -1.13043308272 -7.66923990648 0 -8.36795020308 0 -8.36729072701 8.36795020308 -90 -1.13043308272 0.6987102966 1.32895418623 148.280320608 -121.719679392 23.0446831464 -6.10287269037e-05 -0.000412604516944 0.000417094715504 -98.3868634689 688.272085374
0.90235800375 0.059611111113 7.97150489054 -1.12435197121 -7.89179081079 0 -8.60263040091 0 -8.60197811201 8.60263040091 -90 -1.12435197121 0.710839590113 1.33022829426 147.698209474 -122.301790526 13.0879858775 -3.54635826225e-05 -0.000247407284939 0.00024993668472 -98.1103131136 411.573738156
0.90235800375 0.061331013243 8.19712387487 -1.11831299343 -8.12045965376 0 -8.84383357117 0 -8.8431900283 8.84383357117 -90 -1.11831299343 0.72337391741 1.3318941843 147.10367979 -122.89632021 5.36296273447 -1.48621958071e-05 -0.000106962062026 0.000107989875104 -97.8430053886 177.480676236
0.90235800375 0.063102514093 8.42906977657 -1.1127832645 -8.35527356548 0 -9.09166003725 0 -9.09102688902 9.09166003725 -90 -1.1127832645 0.736386471774 1.33439128243 146.505675573 -123.494324427 1.67344449831 -4.75477879336e-06 -3.54163077758e-05 3.57341227307e-05 -97.5879189402 58.6312779409
0.90235800375 0.064926829409 8.66742329071 -1.10800456611 -8.59629198806 0 -9.34620772969 0 -9.34558671923 9.34620772969 -90 -1.10800456611 0.749915741625 1.33794464389 145.90968005 -124.09031995 0.606327113665 -1.76768939877e-06 -1.36275099518e-05 1.37417044771e-05 -97.3461738051 22.5194726394
0.90235800375 0.066805200713 8.91226216505 -1.10404666786 -8.84359650242 0 -9.60757179617 0 -9.60696476682 9.60757179617 -90 -1.10404666786 0.763975293745 1.34261866426 145.318228745 -124.681771255 0.26235478429 -7.84750665984e-07 -6.24980626981e-06 6.29889228789e-06 -97.1176004087 10.3102623897
0.90235800375 0.068738895813 9.16366189015 -1.10092789913 -9.09727295885 0 -9.87584418256 0 -9.87525308268 9.87584418256 -90 -1.10092789913 0.778571223712 1.34842955948 144.732920422 -125.267079578 0.116609643788 -3.578885677e-07 -2.93979059506e-06 2.96149937556e-06 -96.9016746727 4.84200307186
0.90235800375 0.07072920933 9.42169554096 -1.098651481 -9.35740596304 0 -10.1511131824 0 -10.1505400709 10.1511131824 -90 -1.098651481 0.793707219353 1.35537902523 144.155038337 -125.844961663 0.0478116015172 -1.50569139643e-07 -1.27374876339e-06 1.28261880191e-06 -96.6977917965 2.09479896695
0.90235800375 0.072777463235 9.68643336124 -1.09721410441 -9.62407722844 0 -10.4334629537 0 -10.4329100063 10.4334629537 -90 -1.09721410441 0.809385725277 1.36346221444 143.585689994 -126.414310006 0.0160477240085 -5.18448856226e-08 -4.50892019896e-07 4.53863283631e-07 -96.5053314806 0.740461143185
0.90235800375 0.074885007389 9.95794225931 -1.09660876692 -9.89736469539 0 -10.7229730026 0 -10.7224425171 10.7229730026 -90 -1.09660876692 0.825608307245 1.37267040581 143.025848576 -126.974151424 0.00361298967182 -1.19687653532e-08 -1.06802635837e-07 1.07471227949e-07 -96.3236797607 0.175123808497
0.90235800375 0.077053220104 10.2362852496 -1.09682607559 -10.1773418312 0 -11.01971763 0 -11.0192120329 11.01971763 -90 -1.09682607559 0.842375798779 1.38299224464 142.476370066 -127.523629934 0.000360367637539 -1.22601625987e-09 -1.12237844991e-08 1.12905478397e-08 -96.1522388074 0.0183656287661
0.90235800375 0.079283508704 10.5215208524 -1.09785511355 -10.4640769634 0 -11.323765342 0 -11.3232871948 11.323765342 -90 -1.09785511355 0.859688378579 1.39441456114 141.938005594 -128.061994406 4.9111963813e-06 -1.72223247102e-11 -1.61966030287e-10 1.62879107397e-10 -95.9904327493 0.000264185906959
0.90235800375 0.081577310105 10.8137024523 -1.0996841033 -10.7576326096 0 -11.6351782219 0 -11.6347302272 11.6351782219 -90 -1.0996841033 0.877545612326 1.40692298235 141.411412597 -128.588587403 2.52754360436e-09 -9.14944733014e-15 -8.83509115107e-14 8.88233976656e-14 -95.8377114118 1.43579590382e-07
0.90235800375 0.083936091405 11.1128776196 -1.10230071461 -11.0580648137 0 -11.9540112613 0 -11.9535962701 11.9540112613 -90 -1.10230071461 0.895946447672 1.42050221847 140.897160544 -129.102839456 2.92934446262e-21 -1.10078423457e-26 -1.09060740523e-25 1.09614860964e-25 -95.6935515027 1.75567716705e-19
0.90235800375 0.086361350478 11.3579036764 -1.10369428964 -11.3041439567 0 -12.2148610327 0 -12.2799326691 12.2148610327 -90 -1.10369428964 0.910717075906 1.43093733034 140.472921831 -129.527078169 1.14400551181e-32 -4.45792952308e-38 -4.52773010415e-37 4.54962320324e-37 -95.5772034007 7.23423810102e-31
0.90235800375 0.088854616588 11.6955471551 -1.10582266729 -11.6431446516 0 -12.5741581413 0 -12.6137782233 12.5741581413 -90 -1.10582266729 0.931013489735 1.44556799496 139.906670248 -130.093329752 4.65561229576e-49 -1.91480978422e-54 -1.99240974946e-53 2.00158976188e-53 -95.4263083947 3.09754054393e-47
0.90235800375 0.091417451013 12.0149483566 -1.11071246708 -11.9634923505 0 -12.9144669365 0 -12.9551623908 12.9144669365 -90 -1.11071246708 0.950974585998 1.46221425351 139.431752637 -130.568247363 1.80126536595e-68 -7.64630974436e-74 -8.14238533452e-73 8.17820881751e-73 -95.3050312357 1.26496504906e-66
0.90235800375 0.094051447676 12.3414429042 -1.11633356757 -12.2908449111 0 -13.2623115167 0 -13.3041044479 13.2623115167 -90 -1.11633356757 0.971466605587 1.47985891363 138.970632831 -131.029367169 4.1127082348e-84 -1.80281550624e-89 -1.96315318324e-88 1.97141367002e-88 -95.1904757733 3.04774142149e-82
0.90235800375 0.096758233794 12.5041972947 -1.11928202007 -12.4540016759 0 -13.4357035953 0 -13.6606126043 13.4357035953 -90 -1.11928202007 0.981701919385 1.48880183334 138.746587726 -131.253412274 8.00432925371e-92 -3.62504121674e-97 -4.03350260071e-96 4.04975955684e-96 -95.135562477 6.25758250063e-90
0.90385284315 0.054749215636 7.38050713734 -1.12923001275 -7.29360846842 0 -7.96867750765 0 -7.86123758953 7.96867750765 -90 -1.12923001275 0.675069039229 1.31562861037 149.128464669 -120.871535331 38.2069732528 -0.000106857162163 -0.000690209811335 0.000698432561467 -98.8008952475 1040.57668175
0.90385284315 0.056321365872 7.4864147734 -1.12664791844 -7.40113026705 0 -8.08209763758 0 -8.08164525806 8.08209763758 -90 -1.12664791844 0.680967370532 1.31646938596 148.850631355 -121.149368645 33.3489872051 -9.43294149689e-05 -0.000618369722574 0.000625524990518 -98.6574316309 930.960099312
0.90385284315 0.057941617225 7.69815162814 -1.12117860188 -7.61604519972 0 -8.30877034037 0 -8.30832934273 8.30877034037 -90 -1.12117860188 0.692725140644 1.31793514518 148.290131597 -121.709868403 23.4658354973 -6.80172660226e-05 -0.000460470786506 0.000465468521685 -98.3764433404 691.200582806
0.90385284315 0.059611111113 7.91599770398 -1.11520189543 -7.83702687353 0 -8.54182152528 0 -8.54139352229 8.54182152528 -90 -1.11520189543 0.704794651746 1.31926385025 147.707763013 -122.292236987 13.4702228209 -3.99525632652e-05 -0.000279100536909 0.000281946306527 -98.1006464887 417.797907286
0.90385284315 0.061331013243 8.14004461023 -1.10924040388 -8.06409120473 0 -8.78135312901 0 -8.78093981964 8.78135312901 -90 -1.10924040388 0.71726192428 1.32095671096 147.112550342 -122.887449658 5.59187913226 -1.6962393262e-05 -0.000122227455805 0.000123399081207 -97.8338652665 182.496557769
0.90385284315 0.063102514093 8.37037769841 -1.10376726874 -8.29726410817 0 -9.02746509668 0 -9.02706827019 9.02746509668 -90 -1.10376726874 0.730200988502 1.32345891656 146.513590345 -123.486409655 1.74777078638 -5.43542205409e-06 -4.05305652003e-05 4.08934799085e-05 -97.5791591745 60.376051938
0.90385284315 0.064926829409 8.60707754365 -1.09903327753 -8.53660344149 0 -9.28025502418 0 -9.27987656473 9.28025502418 -90 -1.09903327753 0.743651582686 1.32700389425 145.916557182 -124.083442818 0.626271139012 -1.99848635773e-06 -1.54241181261e-05 1.55530783421e-05 -97.3377315338 22.9352942264
0.90385284315 0.066805200713 8.85022174093 -1.09511194812 -8.78218997067 0 -9.53981777283 0 -9.53945966492 9.53981777283 -90 -1.09511194812 0.757627802158 1.33165950551 145.324064868 -124.675935132 0.269690553515 -8.82996644707e-07 -7.04037942461e-06 7.09554738258e-06 -97.1094451582 10.451200725
0.90385284315 0.068738895813 9.09988564019 -1.09202269794 -9.03410913438 0 -9.80624505532 0 -9.80590938834 9.80624505532 -90 -1.09202269794 0.772135920941 1.33744298512 144.73773554 -125.26226446 0.119856535612 -4.02656400051e-07 -3.31141433865e-06 3.3358101741e-06 -96.8937856731 4.90784605914
0.90385284315 0.07072920933 9.35614220953 -1.08976928518 -9.29244525002 0 -10.0796249904 0 -10.0793139639 10.0796249904 -90 -1.08976928518 0.787179740347 1.34435654506 144.158863541 -125.841136459 0.0493049731028 -1.69967441476e-07 -1.43957165338e-06 1.44957255993e-06 -96.6901529255 2.13039069068
0.90385284315 0.072777463235 9.61906162958 -1.08834879187 -9.5572798186 0 -10.3600416252 0 -10.3597575552 10.3600416252 -90 -1.08834879187 0.80276180662 1.35239572373 143.588563698 -126.411436302 0.016685382546 -5.90098303043e-08 -5.13840544176e-07 5.17218285576e-07 -96.497929651 0.759312715572
0.90385284315 0.074885007389 9.8887107971 -1.08775455011 -9.82869063824 0 -10.647574425 0 -10.6473197483 10.647574425 -90 -1.08775455011 0.818883786766 1.36155213678 143.027814726 -126.972185274 0.00382424759039 -1.38691280614e-08 -1.23918116238e-07 1.24691887568e-07 -96.3165041413 0.182831902235
0.90385284315 0.077053220104 10.1651527742 -1.0879774711 -10.1067511071 0 -10.9422977257 0 -10.9420750068 10.9422977257 -90 -1.0879774711 0.835546618521 1.37181474233 142.47747695 -127.52252305 0.000397586533897 -1.48072929772e-09 -1.35717124083e-08 1.36522511994e-08 -96.1452803313 0.0199821923979
0.90385284315 0.079283508704 10.4484461953 -1.08900691744 -10.3915295626 0 -11.2442801512 0 -11.244092088 11.2442801512 -90 -1.08900691744 0.852750588636 1.38317066511 141.938304828 -128.061695172 5.91690815917e-06 -2.27155310668e-11 -2.13873044308e-10 2.15075974561e-10 -95.9836837406 0.000313847647265
0.90385284315 0.081577310105 10.7386446343 -1.09083137113 -10.6830886169 0 -11.5535839924 0 -11.5534334217 11.5535839924 -90 -1.09083137113 0.870495375466 1.39560581334 141.410958263 -128.589041737 3.41216123734e-09 -1.35240097104e-14 -1.30744162925e-13 1.31441755313e-13 -95.8311653023 1.9111661422e-07
0.90385284315 0.083936091405 11.0357959323 -1.09343875145 -10.9814844997 0 -11.870264545 0 -11.87015445 11.870264545 -90 -1.09343875145 0.888780045297 1.40910517414 140.896008569 -129.103991431 5.76012575941e-21 -2.3706632864e-26 -2.3514838412e-25 2.36340362955e-25 -95.6872026414 3.4033138346e-19
0.90385284315 0.086361350478 11.3399414913 -1.09681645582 -11.2867663939 0 -12.1943694088 0 -12.1943029243 12.1943694088 -90 -1.09681645582 0.90760301484 1.42365286217 140.393939912 -129.606060088 2.39332922506e-32 -1.02162954993e-37 -1.03884110491e-36 1.04385253422e-36 -95.5512995802 1.49178232412e-30
0.90385284315 0.088854616588 11.6511155279 -1.10095134533 -11.5989757376 0 -12.5259377429 0 -12.5259181622 12.5259377429 -90 -1.10095134533 0.926962005331 1.43923211652 139.905150728 -130.094849272 1.17900481395e-48 -5.21708173977e-54 -5.43380516841e-53 5.45879273111e-53 -95.4229852885 7.75231344581e-47