TITLE = "Electromagnetic Field"
VARIABLES = X Y E ER EI EvR EvI EvR' EvI' Ev EvPhase EpR EpI Ep EpPhase EpToEvPhaseShift elConductivity Jr Ji J Jphase QJ
ZONE N=302, E=264, F=FEPOINT, ET=QUADRILATERAL
0.87099611814 0.039383377611 6.13079903332 -1.31280477434 -5.98859252341 0 -6.65423633104 0 -6.67422381347 6.65423633104 -90 -1.31280477434 0.665643807626 1.47191645624 153.113193695 -116.886806305 110.626664733 -8.91636782533e-05 -0.000406735980387 0.000416394427509 -102.364651849 2079.04545194
0.8716064531 0.039725656657 6.14739277824 -1.31216712339 -6.00571699984 0 -6.67189585822 0 -6.71090865285 6.67189585822 -90 -1.31216712339 0.666178858381 1.47159010295 153.08337948 -116.91662052 109.912519864 -8.75565978783e-05 -0.000400717294715 0.000410171417139 -102.32477985 2076.76206938
0.87222192299 0.040058628154 6.18005548528 -1.31076581604 -6.0394503865 0 -6.7066364601 0 -6.74559279966 6.7066364601 -90 -1.31076581604 0.667186073599 1.47079735395 153.023678928 -116.976321072 108.493805298 -8.43383754761e-05 -0.00038857186615 0.000397619328501 -102.245322186 2071.8019883
0.87284238501 0.040382231104 6.21089153344 -1.30914754798 -6.07134988853 0 -6.73939313317 0 -6.77828640972 6.73939313317 -90 -1.30914754798 0.668043244641 1.46974474894 152.965279855 -117.034720145 107.127489211 -8.11871018724e-05 -0.000376493826874 0.000385148039079 -102.16830949 2066.18048511
0.87346770073 0.040696405773 6.23990915441 -1.3073299124 -6.10142105083 0 -6.77017541737 0 -6.80900002731 6.77017541737 -90 -1.3073299124 0.668754366542 1.46844966582 152.908327854 -117.091672146 105.814211942 -7.81037099188e-05 -0.000364495350665 0.000372769509105 -102.09378501 2059.96980234
0.87409772164 0.041001087024 6.26711757907 -1.30533183637 -6.12967018714 0 -6.79899363883 0 -6.83774395546 6.79899363883 -90 -1.30533183637 0.669323451689 1.46693066374 152.852996339 -117.147003661 104.556184682 -7.50903009038e-05 -0.000352594066729 0.000360501287917 -102.021806381 2053.27261124
0.87473231049 0.041296215511 6.36453020307 -1.30687284056 -6.22890546938 0 -6.9034550915 0 -6.86452936142 6.9034550915 -90 -1.30687284056 0.674549622126 1.47069262412 152.699341885 -117.300658115 100.902183853 -0.000209958665827 -0.00100288932582 0.00102463180524 -101.849744249 2043.27585042
0.87250493393 0.039224779183 6.10186425613 -1.30771250459 -5.96008673281 0 -6.62247385727 0 -6.59767445803 6.62247385727 -90 -1.30771250459 0.662387124466 1.46590215717 153.136830184 -116.863169816 111.382314396 -8.27215227597e-05 -0.000377044844283 0.000386012526957 -102.37532172 2073.43105
0.87311561064 0.039568445366 6.11847523602 -1.30709818017 -5.97722455982 0 -6.64015202944 0 -6.63444588584 6.64015202944 -90 -1.30709818017 0.662927469616 1.46559868801 153.107127376 -116.892872624 110.665122402 -8.12339751228e-05 -0.000371481150168 0.000380259491903 -102.335418901 2071.25251038
0.87373143751 0.039902803175 6.15117530912 -1.3057459735 -6.010987102 0 -6.6749324376 0 -6.66923028347 6.6749324376 -90 -1.3057459735 0.663945335599 1.46485390774 153.047695023 -116.952304977 109.241428291 -7.82554706924e-05 -0.000360254898652 0.000368656451832 -102.255920121 2066.52291825
0.87435227103 0.040227782096 6.18205515897 -1.30418182214 -6.04292127235 0 -6.70773423926 0 -6.70203610104 6.70773423926 -90 -1.30418182214 0.664812966912 1.46385364897 152.989674175 -117.010325825 107.87340463 -7.53401957175e-05 -0.000349095458067 0.00035713281104 -102.178917163 2061.1871735
0.87497797208 0.040543314967 6.21112328798 -1.30242637821 -6.07303225008 0 -6.73856634489 0 -6.73287254045 6.73856634489 -90 -1.30242637821 0.66553409481 1.46261788894 152.933275503 -117.066724497 106.563841264 -7.24904688321e-05 -0.000338020342249 0.000345706050513 -102.104481344 2055.35994818
0.87560839147 0.040849330885 6.23838968795 -1.30050324157 -6.10132615448 0 -6.76743858489 0 -6.76174885198 6.76743858489 -90 -1.30050324157 0.666112430415 1.46116920057 152.878768533 -117.121231467 105.31744263 -6.97097743208e-05 -0.000327052391136 0.000334399112017 -102.032712264 2049.19425951
0.87624339128 0.041145766104 6.33574773865 -1.30207214858 -6.20050329662 0 -6.8718354274 0 -6.78867538351 6.8718354274 -90 -1.30207214858 0.671332130783 1.46495126512 152.725167321 -117.274832679 101.636210117 -0.00019492146992 -0.000930315548115 0.000950516720478 -101.860056499 2039.45433525
0.87376229405 0.039092612244 5.99040831365 -1.29370166359 -5.84904109185 0 -6.50096115176 0 -6.53456483108 6.50096115176 -90 -1.29370166359 0.651920059903 1.44867762668 153.255993889 -116.744006111 114.886878725 -0.000110479163557 -0.000498822147331 0.000510910413571 -102.472627039 2060.85213245
0.87437325356 0.039437434619 6.00677709921 -1.29316039007 -5.8659222188 0 -6.51838145728 0 -6.57140607454 6.51838145728 -90 -1.29316039007 0.652459238475 1.44843727102 153.227306043 -116.772693957 114.172513816 -0.000109591448907 -0.000496424718336 0.000508377985293 -102.432918618 2059.18769208
0.87498937575 0.039772947944 6.03874165769 -1.29195975726 -5.8989132306 0 -6.55237959229 0 -6.60627159194 6.55237959229 -90 -1.29195975726 0.653466361696 1.44781974738 153.170314787 -116.829685213 112.766236939 -0.000107846149186 -0.000491699235004 0.000503387822117 -102.354391894 2055.52735295
0.87561051658 0.040099073774 6.06888907792 -1.29053915144 -5.93008097674 0 -6.58440600985 0 -6.63916842837 6.58440600985 -90 -1.29053915144 0.654325033109 1.44694032038 153.114577915 -116.885422085 111.41673193 -0.000106168000252 -0.000487118921247 0.000498554749378 -102.278322175 2051.25802602
0.87623653638 0.040415738751 6.09722627419 -1.28891191553 -5.95943052638 0 -6.61447376577 0 -6.67010467974 6.61447376577 -90 -1.28891191553 0.655043239386 1.44581440211 153.060023776 -116.939976224 110.121275207 -0.000104550946271 -0.000482662531464 0.000493856608894 -102.204716635 2046.38914274
0.87686728543 0.040722867164 6.12374270652 -1.28708464378 -5.98695056057 0 -6.64258416892 0 -6.69908872853 6.64258416892 -90 -1.28708464378 0.655633608345 1.44445349901 153.006297468 -116.993702532 108.865631457 -0.000102985586061 -0.000478293974995 0.000489256034329 -102.133557312 2040.70212171
0.87750262527 0.041020391599 6.22864285437 -1.28953149554 -6.09367540777 0 -6.75518205769 0 -6.72613024756 6.75518205769 -90 -1.28953149554 0.661506649922 1.44930823968 152.843808253 -117.156191747 104.854707738 -0.000143725937566 -0.000680563469465 0.000695576289233 -101.950703862 2032.33372287
0.87473211728 0.042552810357 6.48702728409 -1.3112805765 -6.35309372669 0 -7.03534780362 0 -7.07030465603 7.03534780362 -90 -1.3112805765 0.682254076932 1.47815491916 152.512825147 -117.487174853 96.6458801655 -0.000245101857352 -0.0011872376476 0.00121227779865 -101.664255045 2031.86075812
0.87473191754 0.043851857639 6.5823069894 -1.31482724451 -6.44965073626 0 -7.13798437732 0 -7.28274092109 7.13798437732 -90 -1.31482724451 0.688333641059 1.48410710001 152.367204502 -117.632795498 93.3654555242 -0.000241458589575 -0.0011844320815 0.00120879345059 -101.522441578 2022.61158944
0.87624330323 0.042407196511 6.45806916437 -1.30654445278 -6.32450264259 0 -7.0035476291 0 -6.99374024705 7.0035476291 -90 -1.30654445278 0.67904498651 1.47247257277 152.538665619 -117.461334381 97.3389213362 -0.000227543264699 -0.00110128980482 0.00112455467659 -101.674438085 2028.08777954
0.8762432122 0.043711236968 6.60591044875 -1.31024360299 -6.4746488612 0 -7.16255262037 0 -7.2054433024 7.16255262037 -90 -1.31024360299 0.687903759178 1.47985221569 152.299903362 -117.700096638 92.0811944376 -0.000215124190987 -0.0010623270439 0.00108389260753 -101.441754999 2007.87639307
0.87624311813 0.045058967933 6.82255159801 -1.31249901141 -6.69508988043 0 -7.3952437171 0 -7.42392171713 7.3952437171 -90 -1.31249901141 0.700153836679 1.48757854526 151.922828756 -118.077171244 84.3859419783 -0.000191348742169 -0.000975730249205 0.000994319283148 -101.09384654 1961.95412395
0.87624302093 0.046451494419 7.03186906454 -1.31564130532 -6.90767003136 0 -7.62039194578 0 -7.64931283917 7.62039194578 -90 -1.31564130532 0.712721914426 1.49629864865 151.554791608 -118.445208392 77.2966767228 -0.000181511402678 -0.00095258642246 0.000969728948897 -100.785808903 1908.80782365
0.87624292052 0.047889946557 7.13643580074 -1.31674156688 -7.01390815339 0 -7.73282898322 0 -7.8817539513 7.73282898322 -90 -1.31674156688 0.718920829832 1.50021848859 151.366132346 -118.633867654 73.767437276 -0.000176278695372 -0.000938986517807 0.000955389898976 -100.632547685 1878.44042926
0.87750262527 0.042285851599 6.41754373904 -1.29875503901 -6.28473088419 0 -6.95887041208 0 -6.93060525312 6.95887041208 -90 -1.29875503901 0.674139527892 1.46329865015 152.568330855 -117.431669145 98.2035122782 -0.000172230317568 -0.000833000165089 0.00085062162022 -101.678100979 2020.60179407
0.87750262527 0.043594052997 6.61364111956 -1.30543112725 -6.48350254594 0 -7.17006946674 0 -7.14169954118 7.17006946674 -90 -1.30543112725 0.686566920801 1.47497179699 152.259316176 -117.740683824 91.3565232316 -0.000166494768371 -0.000826444916879 0.00084305188164 -101.386313438 1996.164698
0.87750262526 0.044946078498 6.81613320285 -1.31037882025 -6.68896485703 0 -7.38802284447 0 -7.35954976956 7.38802284447 -90 -1.31037882025 0.699057987438 1.48519209697 151.921628782 -118.078371218 84.4051203589 -0.000159597259098 -0.000814174993269 0.000829672870794 -101.086244482 1958.70837632
0.87750262526 0.046343035186 7.02516830289 -1.31351316388 -6.90125405313 0 -7.61286712572 0 -7.58429273656 7.61286712572 -90 -1.31351316388 0.711613072597 1.49389927143 151.553302469 -118.446697531 77.3048977581 -0.00015140701008 -0.000794935535055 0.000809228916122 -100.77853225 1905.37409699
0.87750262526 0.047786055041 7.12955045015 -1.31460846806 -7.00730281161 0 -7.72510549364 0 -7.8160651325 7.72510549364 -90 -1.31460846806 0.717802682022 1.49781044123 151.364566507 -118.635433493 73.7719721059 -0.000147051307221 -0.000783627903183 0.000797305958495 -100.62548067 1874.93570068
0.87438077404 0.037989888976 5.85369675437 -1.28074741919 -5.71185633333 0 -6.35268168706 0 -6.33293560087 6.35268168706 -90 -1.28074741919 0.640825353738 1.43212391315 153.4196324 -116.5803676 119.792761698 -0.000132332486732 -0.000590090068112 0.000604747688311 -102.640070359 2051.04845506
0.87499925402 0.036887165709 5.66836564237 -1.26296618237 -5.52586218457 0 -6.15182624744 0 -6.13230577376 6.15182624744 -90 -1.26296618237 0.625964062865 1.4095819391 153.63647338 -116.36352662 126.801559415 -0.000134261338484 -0.000587358197298 0.00060250913522 -102.876032603 2035.75488864
0.875617734 0.035784442443 5.48402634189 -1.2432573685 -5.34123019592 0 -5.951956714 0 -5.93267645983 5.951956714 -90 -1.2432573685 0.610726518078 1.38516473621 153.839195817 -116.160804183 134.136722602 -0.000135782777455 -0.000583276039284 0.000598873346581 -103.105084179 2015.72490211
0.87623621398 0.034681719179 5.30067008676 -1.22154160555 -5.15798799651 0 -5.75307453003 0 -5.73404869103 5.75307453003 -90 -1.22154160555 0.59508653352 1.35878492346 154.02740743 -115.97259257 141.778354739 -0.000136828475405 -0.000577702620117 0.000593686445416 -103.325473719 1990.48828991
0.87685469396 0.033578995915 5.11828948268 -1.19772815416 -4.97616839719 0 -5.55518108457 0 -5.53642342126 5.55518108457 -90 -1.19772815416 0.579012687384 1.33034285441 154.200596866 -115.799403134 149.686960213 -0.000137314954977 -0.000570449314546 0.000586744325268 -103.535071263 1959.41372395
0.87747317394 0.032476272654 4.93687740782 -1.17171848338 -4.79580735848 0 -5.35827771642 0 -5.33980152882 5.35827771642 -90 -1.17171848338 0.562470357936 1.2997307321 154.358098535 -115.641901465 157.759848356 -0.000137116259898 -0.000561174909465 0.000577684216098 -103.73134718 1921.35732146
0.87809165392 0.031373549394 4.75642634391 -1.14340904801 -4.6169423906 0 -5.16236571809 0 -5.144183816 5.16236571809 -90 -1.14340904801 0.545423327497 1.26683582006 154.499045365 -115.500954635 165.638922887 -0.000135921074144 -0.000548810360732 0.000565391953537 -103.911337688 1872.70828783
0.87871013389 0.030270826135 4.57692826989 -1.11269768429 -4.43961042041 0 -4.96744634709 0 -4.94957101182 4.96744634709 -90 -1.11269768429 0.527835926677 1.23154715837 154.622354095 -115.377645905 172.516996546 -0.000133148900482 -0.000531257105354 0.000547689009363 -104.071649685 1806.41173329
0.87932861387 0.029168102879 4.48583382729 -1.09643496658 -4.3497741884 0 -4.86851607619 0 -4.75596377249 4.86851607619 -90 -1.09643496658 0.518741887786 1.21295621606 154.680378729 -115.319621271 175.612661093 -0.000131231683407 -0.000520622021901 0.000536906923421 -104.147658429 1766.90089779
0.87497504041 0.038325404027 5.87031034617 -1.28038887961 -5.72895981909 0 -6.37038085264 0 -6.36929527134 6.37038085264 -90 -1.28038887961 0.641421033541 1.43207020508 153.391899057 -116.608100943 119.06902192 -0.000131503521255 -0.000588300900703 0.000602820778084 -102.600246218 2050.17871481
0.87557682726 0.037213373436 5.68473702809 -1.2628153231 -5.54268736899 0 -6.16928126476 0 -6.16815019042 6.16928126476 -90 -1.2628153231 0.62659389577 1.40972679527 153.610818175 -116.389181825 126.085648448 -0.000133494834967 -0.000585841217716 0.000600859777028 -102.836881937 2035.91000145
0.87617861411 0.036101342845 5.5001404415 -1.24330815087 -5.35776059559 0 -5.96915084108 0 -5.96797239983 5.96915084108 -90 -1.24330815087 0.611390245492 1.38550323427 153.815493303 -116.184506697 133.426904113 -0.000135077354473 -0.000582007161515 0.000597477845333 -103.066676923 2016.80287503
0.87678040096 0.034989312256 5.31651164403 -1.22178616521 -5.17420735734 0 -5.76999125165 0 -5.76876338842 5.76999125165 -90 -1.22178616521 0.595783894311 1.35931042666 154.005507318 -115.994492682 141.076194277 -0.000136185708981 -0.000576671845237 0.000592535540516 -103.287873132 1992.43432933
0.87738218781 0.033877281668 5.13384373534 -1.19815634774 -4.99206151996 0 -5.57180411078 0 -5.57052456592 5.57180411078 -90 -1.19815634774 0.579742590819 1.33104623818 154.180345318 -115.819654682 148.989454725 -0.000136731798356 -0.000569628909512 0.000585810474544 -103.498326686 1962.10969769
0.87798397466 0.032765251081 4.95213009001 -1.17231832161 -4.81136003693 0 -5.37459098218 0 -5.37325726461 5.37459098218 -90 -1.17231832161 0.563230945249 1.30060080475 154.339343705 -115.660656295 157.057115091 -0.000136583354241 -0.000560512393455 0.000576914376884 -103.695497478 1924.59625216
0.8785857615 0.031653220496 4.7713635641 -1.14416725244 -4.63214118342 0 -5.17835338492 0 -5.17696274078 5.17835338492 -90 -1.14416725244 0.546212201503 1.26785992992 154.481638719 -115.518361281 164.920092388 -0.000135429116502 -0.000548254092812 0.000564733947323 -103.876417123 1876.27615137
0.87918754835 0.030541189912 4.59153641065 -1.1136001802 -4.45444245358 0 -4.9830928001 0 -4.98164217443 4.9830928001 -90 -1.1136001802 0.528650346515 1.23271172867 154.606151615 -115.393848385 171.766134331 -0.000132685236328 -0.000530739660904 0.000547074564976 -104.037693899 1810.0195558
0.87978933519 0.02942915933 4.44678067947 -1.08657885432 -4.31198202313 0 -4.82582590629 0 -4.78729667316 4.82582590629 -90 -1.08657885432 0.513843883158 1.20195251203 154.691067239 -115.308932761 175.366834699 -0.000128396392872 -0.000509544906777 0.00052547299205 -104.144361461 1734.08032304
0.88039112203 0.02831712875 4.33587509933 -1.06412768064 -4.20326601065 0 -4.70524047858 0 -4.59392727151 4.70524047858 -90 -1.06412768064 0.501974467936 1.17658237585 154.745627682 -115.254372318 176.457659696 -0.000123456874845 -0.000487650208954 0.000503035114321 -104.206890419 1658.68549149
0.87557437355 0.038651785091 5.90264997017 -1.27954870091 -5.76227924724 0 -6.40481501964 0 -6.4037327261 6.40481501964 -90 -1.27954870091 0.642535772398 1.43181906097 153.336955003 -116.663044997 117.649353518 -0.000129870896894 -0.000584757171981 0.000599006801418 -102.521737547 2048.09477852
0.87615937134 0.037530622239 5.71661505867 -1.26238166837 -5.57547563343 0 -6.20325031815 0 -6.20212536911 6.20325031815 -90 -1.26238166837 0.627774684715 1.40986381085 153.559998173 -116.440001827 124.681832038 -0.000131984382778 -0.000582836750444 0.000597595359437 -102.759638176 2035.86609483
0.87674436914 0.036409459388 5.53152566055 -1.24327216189 -5.38998302013 0 -6.00262106187 0 -6.00145153389 6.00262106187 -90 -1.24327216189 0.612638041744 1.38602210278 153.768548883 -116.231451117 132.03564672 -0.000133686795873 -0.000579494631872 0.000594716513735 -102.990864462 2018.59825462
0.87732936694 0.035288296538 5.34737276032 -1.2221335262 -5.20583038503 0 -5.80292936711 0 -5.80171315409 5.80292936711 -90 -1.2221335262 0.597098982086 1.36019949902 153.962130638 -116.037869362 139.700025362 -0.000134917740519 -0.000574628984167 0.000590256443405 -103.213627537 1995.95227123
0.87791436473 0.034167133688 5.16415082522 -1.19886737648 -5.02305426055 0 -5.6041772941 0 -5.60291208369 5.6041772941 -90 -1.19886737648 0.581123033556 1.33228791554 154.140226694 -115.859773306 147.62200232 -0.000135580071789 -0.000567999092656 0.000583957328555 -103.42574674 1967.11023416
0.87849936252 0.03304597084 4.98185436204 -1.17336938612 -4.84169377901 0 -5.4063668514 0 -5.40505009826 5.4063668514 -90 -1.17336938612 0.564673072386 1.30217303551 154.30217985 -115.69782015 155.678304016 -0.000135529001739 -0.000559189895224 0.000575380306421 -103.624657667 1930.66252849
0.87908436032 0.031924807993 4.80047699986 -1.14553209697 -4.66178877388 0 -5.20950000291 0 -5.20812889562 5.20950000291 -90 -1.14553209697 0.547711229034 1.26973768615 154.447133373 -115.552866627 163.507197193 -0.000134452867352 -0.000547132878759 0.000563411751744 -103.807381647 1882.97110998
0.87966935811 0.030803645148 4.62001153553 -1.11525098619 -4.48337785538 0 -5.01357867279 0 -5.01215009856 5.01357867279 -90 -1.11525098619 0.530200817408 1.23486816571 154.574017387 -115.425982613 170.285950068 -0.00013176104452 -0.000529681870799 0.000545824589838 -103.970529415 1816.75629904
0.8802543559 0.029682482303 4.44045034629 -1.08243874093 -4.30649453355 0 -4.81860475452 0 -4.81711525385 4.81860475452 -90 -1.08243874093 0.512110220976 1.19746884702 154.681604798 -115.318395202 174.458055437 -0.000126502786109 -0.000503314329968 0.000518968867797 -104.110416559 1720.15351077
0.88083935369 0.028561319461 4.34925324341 -1.06506539461 -4.21682744073 0 -4.71957211343 0 -4.62302583609 4.71957211343 -90 -1.06506539461 0.502744672698 1.17775913855 154.731216622 -115.268783378 175.6417574 -0.000123008195829 -0.000487011270792 0.000502305755184 -104.175117435 1661.188325
0.87617866639 0.038968885599 5.93323460702 -1.27846852834 -5.79384323094 0 -6.43734418283 0 -6.43624171406 6.43734418283 -90 -1.27846852834 0.643500951892 1.43128762319 153.283020597 -116.716979403 116.283605406 -0.000128275839757 -0.000581226896262 0.000595215192341 -102.44547241 2045.33137557
0.87674681621 0.037838697426 5.74680200375 -1.26169163008 -5.60657769892 0 -6.23537902877 0 -6.23421190952 6.23537902877 -90 -1.26169163008 0.628801329846 1.40970371403 153.510147108 -116.489852892 123.331899015 -0.000130505013199 -0.000579833137731 0.000594339695884 -102.684447631 2035.12923976
0.87731496602 0.036708509252 5.56128007046 -1.24297133348 -5.42058322289 0 -6.03431497795 0 -6.03308146127 6.03431497795 -90 -1.24297133348 0.613731755057 1.38623621346 153.722503291 -116.277496709 130.698476245 -0.000132321863997 -0.000576971736558 0.00059195185608 -102.916983227 2019.69256529
0.87788311584 0.03557832108 5.37666142779 -1.22221058311 -5.23589267853 0 -5.83415457978 0 -5.83285273496 5.83415457978 -90 -1.22221058311 0.598261901245 1.36077966962 153.919561164 -116.080438836 138.376852138 -0.000133669007339 -0.00057255989449 0.000587957174587 -103.141209668 1998.7463783
0.87845126565 0.034448132908 5.19294294946 -1.1993039933 -5.05254666344 0 -5.63490032739 0 -5.6335280169 5.63490032739 -90 -1.1993039933 0.582353663951 1.33321795677 154.100822797 -115.899177203 146.305568227 -0.00013444063732 -0.000566324735231 0.000582064627265 -103.3548911 1971.35633468
0.87901941546 0.033317944737 5.01012054511 -1.17414293615 -4.87058682382 0 -5.43655466343 0 -5.43510951418 5.43655466343 -90 -1.17414293615 0.565967839605 1.30343183914 154.265643515 -115.734356485 154.34784005 -0.000134479778349 -0.000557803274618 0.000573785985145 -103.555434303 1935.93862431
0.87958756527 0.032187756567 4.82818863908 -1.14661735007 -4.69005454982 0 -5.23911998346 0 -5.23759935621 5.23911998346 -90 -1.14661735007 0.549065433642 1.27130118305 154.41317438 -115.58682562 162.138477291 -0.000133473855996 -0.000545924700774 0.000562005245812 -103.739850061 1888.82882122
0.88015571508 0.031057568398 4.64714054585 -1.11662127056 -4.51098949314 0 -5.04259864396 0 -5.0409995957 5.04259864396 -90 -1.11662127056 0.531609150825 1.23671060901 154.54235417 -115.45764583 168.844107537 -0.000130825748724 -0.000528512021507 0.000544463924076 -103.904752526 1822.6012781
0.88072386489 0.02992738023 4.46696903657 -1.0840671409 -4.33342583347 0 -4.84699297162 0 -4.84531220995 4.84699297162 -90 -1.0840671409 0.513567138152 1.19956406557 154.651971489 -115.348028511 172.905416917 -0.00012558470794 -0.00050203233138 0.000517502078393 -104.046476458 1725.28874495
0.8812920147 0.028797192064 4.37545384045 -1.06681826396 -4.24340540366 0 -4.74763026633 0 -4.6505391024 4.74763026633 -90 -1.06681826396 0.504224862669 1.17997627377 154.702550851 -115.297449149 174.023690666 -0.000122092849627 -0.000485634713923 0.000500747255324 -104.11213771 1665.77594116
0.87678752935 0.039277123849 5.96207578284 -1.27715532919 -5.82366280841 0 -6.46798510606 0 -6.46691735773 6.46798510606 -90 -1.27715532919 0.644322297644 1.43048462762 153.229987335 -116.770012665 114.966784088 -0.000126709719691 -0.000577676243798 0.000591410942377 -102.371390723 2041.8557551
0.87733852232 0.038138508947 5.77532032155 -1.26075305037 -5.63601547521 0 -6.26569105658 0 -6.26459121907 6.26569105658 -90 -1.26075305037 0.629675581375 1.40925424059 153.461312348 -116.538687652 122.033345505 -0.000129052033372 -0.000576814756402 0.00059107641356 -102.611239966 2033.71804359
0.87788951529 0.036999894046 5.5894321276 -1.24241633244 -5.44958853476 0 -6.06426312118 0 -6.0631291266 6.06426312118 -90 -1.24241633244 0.614674586417 1.38615649387 153.677402254 -116.322597746 129.413390548 -0.000130979823466 -0.000574430414887 0.000589175312979 -102.844981122 2020.1159714
0.87844050826 0.035861279145 5.40441188969 -1.22202982887 -5.26442700391 0 -5.86370426862 0 -5.86253386243 5.86370426862 -90 -1.22202982887 0.599277264711 1.36106414393 153.877825653 -116.122174347 137.104596933 -0.000132438101728 -0.000570461469207 0.000585634305756 -103.070575785 2000.84807323
0.87899150123 0.034722664245 5.22026040548 -1.19947992452 -5.08057734483 0 -5.66401741094 0 -5.66280812945 5.66401741094 -90 -1.19947992452 0.58344006611 1.33385111439 154.062146231 -115.937853769 145.037801017 -0.000133313271804 -0.000564607238318 0.000580133608079 -103.285717208 1974.87852368
0.8795424942 0.033584049346 5.03697512275 -1.17465378153 -4.89808381435 0 -5.46520540997 0 -5.46395455154 5.46520540997 -90 -1.17465378153 0.567121595613 1.30439328639 154.229737686 -115.770262314 153.063032531 -0.000133436673927 -0.000556358547809 0.000572137427447 -103.487783624 1940.45419955
0.88009348717 0.032445434447 4.85455119053 -1.14743896472 -4.71698921365 0 -5.26727108113 0 -5.2659756746 5.26727108113 -90 -1.14743896472 0.550281867484 1.27256783409 154.379758214 -115.620241786 160.811090806 -0.000132494544015 -0.00054464111368 0.000560526179863 -103.673777578 1893.88096757
0.88064448014 0.031306819549 4.67298237297 -1.11772828354 -4.5373340949 0 -5.07021720096 0 -5.06887396804 5.07021720096 -90 -1.11772828354 0.532883106058 1.23825795333 154.511154454 -115.488845546 167.43801912 -0.000129883628755 -0.000527248414 0.000543011309691 -103.840319008 1827.59253686
0.88119547311 0.030168204651 4.49226179202 -1.08543412129 -4.35915319892 0 -4.87404651554 0 -4.87265182535 4.87404651554 -90 -1.08543412129 0.514893316618 1.20136737768 154.622730646 -115.377269354 171.382480574 -0.000124654152436 -0.000500641108325 0.000515926933795 -103.983764037 1729.53534797
0.88174646607 0.029029589755 4.34805598805 -1.05720952749 -4.21756908102 0 -4.71743470049 0 -4.67731156642 4.71743470049 -90 -1.05720952749 0.499865619475 1.16942637959 154.694945374 -115.305054626 170.767107551 -0.00011634911295 -0.000464204198254 0.000478563237477 -104.072900635 1615.5168016
0.88227975992 0.027927549731 4.23572045045 -1.03341157487 -4.1077230008 0 -4.59534696992 0 -4.48908803882 4.59534696992 -90 -1.03341157487 0.487623969123 1.14267957816 154.739323118 -115.260676882 167.197505501 -0.000106030718109 -0.000421463074497 0.000434595946077 -104.12129092 1499.87262128
0.87740119205 0.039575684315 5.98915889938 -1.27560641308 -5.85172435326 0 -6.49672996993 0 -6.49563433784 6.49672996993 -90 -1.27560641308 0.645005616671 1.42941025589 153.177573422 -116.822426578 113.684827537 -0.000125166871913 -0.000574084731593 0.000587572724912 -102.299398896 2037.44414914
0.87793509867 0.038428501467 5.802150812 -1.25956698863 -5.66376966756 0 -6.29416254625 0 -6.2930054934 6.29416254625 -90 -1.25956698863 0.630392878692 1.4085142317 153.413649619 -116.586350381 120.785114649 -0.000127634882208 -0.000573827168096 0.000587851942861 -102.539975326 2031.64246623
0.87846900529 0.037281318619 5.61594581758 -1.2416106927 -5.47696177398 0 -6.09242577146 0 -6.0912054618 6.09242577146 -90 -1.2416106927 0.615463997475 1.38578492905 153.633376117 -116.366623883 128.181151281 -0.00012967235257 -0.000571921655805 0.000586439107865 -102.774887911 2019.89248947
0.87900291191 0.036134135771 5.43057272779 -1.2215938206 -5.29138048831 0 -5.89152301816 0 -5.89023742991 5.89152301816 -90 -1.2215938206 0.600142529852 1.36105405375 153.837040055 -116.162959945 135.884803158 -0.000131237346939 -0.000568384513819 0.000583340034767 -103.001790818 2002.27576683
0.87953681853 0.034986952924 5.24603721545 -1.19939526064 -5.10707893956 0 -5.69145760431 0 -5.6901045055 5.69145760431 -90 -1.19939526064 0.584378664742 1.33418587107 154.02431009 -115.97568991 143.820931292 -0.000132210555114 -0.00056289630352 0.000578215462723 -103.218310163 1977.68690482
0.88007072515 0.033839770077 5.06233793792 -1.17489879188 -4.92410346196 0 -5.49223279712 0 -5.4908097176 5.49223279712 -90 -1.17489879188 0.568129335155 1.30505235493 154.194574681 -115.805425319 151.826758032 -0.000132412263312 -0.000554903695675 0.000570484160673 -103.421803625 1944.20973814
0.88060463177 0.03269258723 4.87947054389 -1.14799004988 -4.74249792242 0 -5.29385181842 0 -5.29235601777 5.29385181842 -90 -1.14799004988 0.551353895997 1.27352853591 154.346995001 -115.653004999 159.52812744 -0.000131526931046 -0.000543326435523 0.00055902039653 -103.609269677 1898.11278138
0.88113853839 0.031545404383 4.69742912959 -1.11856090336 -4.56230357178 0 -5.09631785172 0 -5.09474628092 5.09631785172 -90 -1.11856090336 0.534014279939 1.23949652715 154.480523534 -115.519476466 166.070124941 -0.000128945245413 -0.000525928669859 0.000541505753113 -103.777336467 1831.69154994
0.88167244501 0.030398221537 4.51620710479 -1.08652390997 -4.38355557552 0 -4.89963404929 0 -4.89798330658 4.89963404929 -90 -1.08652390997 0.516078473769 1.20286011417 154.593979566 -115.406020434 169.889574468 -0.000123719056004 -0.000499167426269 0.000514271281384 -103.922383401 1732.82023571
0.88220635162 0.029251038692 4.33863176924 -1.05240774364 -4.20905495048 0 -4.70687999052 0 -4.70206982007 4.70687999052 -90 -1.05240774364 0.497825040042 1.1642132798 154.684935566 -115.315064434 168.688519333 -0.000113151479924 -0.000452621519738 0.000466550884198 -104.039210111 1589.17082269
0.88272310699 0.028140708039 4.20445952574 -1.02446188477 -4.0777387008 0 -4.56117777993 0 -4.51326136504 4.56117777993 -90 -1.02446188477 0.483439079126 1.1327999265 154.73786002 -115.26213998 162.681244991 -9.70628187322e-05 -0.000386403057823 0.000398407527028 -104.103033514 1439.85927503
0.88315373646 0.027215432495 4.09887528374 -1.00062651136 -3.974861655 0 -4.44643176306 0 -4.3565324675 4.44643176306 -90 -1.00062651136 0.471570108053 1.10617891051 154.766677285 -115.233322715 153.558706723 -7.5931113242e-05 -0.000301626697894 0.000311037294935 -104.129965281 1289.95291624
0.87801919566 0.039865162745 6.01437629054 -1.27376355372 -5.87793087361 0 -6.52338552702 0 -6.52251919773 6.52338552702 -90 -1.27376355372 0.645454653416 1.4279689019 153.128122503 -116.871877497 112.479617984 -0.000123549817829 -0.000570025030827 0.000583262171611 -102.229068083 2032.83853861
0.87853576605 0.03870993389 5.82713436678 -1.2581231852 -5.68968019572 0 -6.32061231239 0 -6.31969718789 6.32061231239 -90 -1.2581231852 0.630932116664 1.40746496884 153.367709568 -116.632290432 119.599022474 -0.000126121202347 -0.000570265459037 0.000584046969119 -102.470806082 2029.0365843
0.87905233644 0.037554705036 5.64066513409 -1.24055050039 -5.50254447575 0 -6.11863379574 0 -6.1176678713 6.11863379574 -90 -1.24055050039 0.616089319992 1.385113205 153.590720541 -116.409279459 127.008661832 -0.000128257042266 -0.000568803715656 0.000583085802422 -102.706929559 2019.0594696
0.87956890682 0.036399476182 5.45499792791 -1.2208988894 -5.31660468509 0 -5.91745373868 0 -5.91643482206 5.91745373868 -90 -1.2208988894 0.600849053587 1.36074224126 153.797435888 -116.202564112 134.722431463 -0.000129917396311 -0.000565668524127 0.00058039710653 -102.935078138 2003.0314054
0.88008547721 0.035244247327 5.27013836889 -1.19904564689 -5.13191428846 0 -5.7170758497 0 -5.71600153499 5.7170758497 -90 -1.19904564689 0.585161561237 1.33421480989 153.987510887 -116.012489113 142.659402148 -0.000130978021966 -0.000560521157291 0.000575621792287 -103.152876898 1979.77217991
0.8806020476 0.034089018473 5.08608514415 -1.17487289673 -4.94852009479 0 -5.51750378662 0 -5.51637142861 5.51750378662 -90 -1.17487289673 0.568983691835 1.30540123961 154.160322671 -115.839677329 150.643820431 -0.000131248583582 -0.000552764494116 0.00056813364033 -103.357681668 1947.19994016