TITLE = "Electromagnetic Field"
VARIABLES = X Y E ER EI EvR EvI EvR' EvI' Ev EvPhase EpR EpI Ep EpPhase EpToEvPhaseShift elConductivity Jr Ji J Jphase QJ
ZONE N=292, E=254, F=FEPOINT, ET=QUADRILATERAL
0.41440183287 0.058224695716 404.249009555 -70.9524179949 -397.973637452 0 -485.679039873 0 -503.563658352 485.679039873 -90 -70.9524179949 87.7054024208 112.81171585 128.972364234 -141.027635766 0.473352341987 -0.000821201772206 -0.00460613838968 0.00467876941253 -100.108723334 38676.9717797
0.41440183287 0.060915930501 414.159202574 -69.7155094226 -408.237442907 0 -494.572345349 0 -525.443518571 494.572345349 -90 -69.7155094226 86.3349024416 110.968370512 128.91992141 -141.08007859 0.303878195205 -0.0005136853488 -0.00292317907955 0.00296801691671 -99.7020165762 25291.9658816
0.41440183287 0.063299251501 433.463771511 -67.3581503182 -428.191163954 0 -511.910763106 0 -544.580447696 511.910763106 -90 -67.3581503182 83.7195991519 107.452776764 128.818381486 -141.181618514 0.0743635764552 -0.000106309715037 -0.000660646267921 0.000669150840888 -98.946511546 6827.75934253
0.41440183287 0.065285352334 449.851871453 -65.4489478986 -445.061240013 0 -526.656341119 0 -560.333155754 526.656341119 -90 -65.4489478986 81.5951011059 104.600812607 128.733303043 -141.266696957 0.0183085235448 -2.12639241067e-05 -0.000141813769501 0.000143399679342 -98.3696577628 1816.03597553
0.41440183287 0.066940436362 463.293833628 -63.9391321496 -458.858061277 0 -538.768404241 0 -573.309777203 538.768404241 -90 -63.9391321496 79.910342965 102.341968448 128.664260051 -141.335739949 0.0035950693476 -3.42882577174e-06 -2.41715289769e-05 2.44135522896e-05 -97.9351341663 378.666319109
0.41440183287 0.068319673052 474.336156103 -62.7332084024 -470.167968867 0 -548.729390915 0 -584.009066879 548.729390915 -90 -62.7332084024 78.5614220483 100.535338977 128.608020161 -141.391979839 0.000421744859785 -3.31755502203e-07 -2.44635251714e-06 2.46874609728e-06 -97.6014173563 46.6278314989
0.41440183287 0.06946903696 483.421248451 -61.7623766701 -479.458658088 0 -556.931873786 0 -592.839273275 556.931873786 -90 -61.7623766701 77.4732156979 99.0792186523 128.562049737 -141.437950263 1.98794343005e-05 -1.28689898251e-08 -9.85285279447e-08 9.93654044497e-08 -97.3411870804 2.28861458342
0.41440183287 0.070426840216 490.907233531 -60.9758620419 -487.104984482 0 -563.695042993 0 -600.134208327 563.695042993 -90 -60.9758620419 76.5900585108 97.8983842318 128.524359329 -141.475640671 3.49661967231e-07 -1.86239646026e-10 -1.47085747591e-09 1.48260145223e-09 -97.1357874193 0.0416199625499
0.41440183287 0.071225009597 497.084286164 -60.3354298408 -493.408588429 0 -569.278453161 0 -606.16674817 569.278453161 -90 -60.3354298408 75.869864732 96.936066631 128.493377294 -141.506622706 3.36136040744e-09 -1.47703762468e-12 -1.19645610105e-11 1.20553871908e-11 -96.9720801343 0.000411087277349
0.41440183287 0.071890150747 502.187902947 -59.811801131 -498.613056855 0 -573.893341771 0 -611.160043933 573.893341771 -90 -59.811801131 75.2802849162 96.148703666 128.467853525 -141.532146475 8.78068519554e-16 -3.18500296328e-19 -2.63447807009e-18 2.65366108281e-18 -96.8405708031 1.0980523348e-10
0.41440183287 0.07244443504 506.409586708 -59.3822395724 -502.915745042 0 -577.711856928 0 -615.296744242 577.711856928 -90 -59.3822395724 74.7961118858 95.502402984 128.446787274 -141.553212726 8.14236171559e-20 -2.44183621251e-23 -2.05477472578e-22 2.06923290627e-22 -96.7342472416 1.03697261545e-14
0.41440183287 0.072906338616 509.905408412 -59.0288826432 -506.477048225 0 -580.874529012 0 -618.726529104 580.874529012 -90 -59.0288826432 74.397480787 94.9704917329 128.429372812 -141.570627188 5.84388533325e-23 -1.45099066246e-26 -1.23838963249e-25 1.24686110801e-25 -96.6478341106 7.55473745552e-18
0.41440183287 0.073291258264 511.61881646 -58.8562821243 -508.222147697 0 -582.424822222 0 -621.572235597 582.424822222 -90 -58.8562821243 74.2026745247 94.7106058059 128.42084477 -141.57915523 9.76645960393e-26 -2.01023403935e-29 -1.73583077962e-28 1.74743208864e-28 -96.605893126 1.27820402215e-20
0.42348728532 0.058224695716 381.552087798 -67.6897165748 -375.498992465 0 -458.559677144 0 -448.53046011 458.559677144 -90 -67.6897165748 83.0606846792 107.150079647 129.189544242 -140.810455758 0.453128828911 -0.000751581023745 -0.00417145143022 0.00423862656336 -100.225695871 33275.5511219
0.42348728532 0.060915930501 390.727553298 -66.5364040414 -385.008693371 0 -466.8088443 0 -467.259853694 466.8088443 -90 -66.5364040414 81.8001509292 105.444419514 129.13526697 -140.86473303 0.291278787585 -0.000470711176927 -0.00265001260147 0.00269154043259 -99.8228277849 21780.1308809
0.42348728532 0.063299251501 408.586365503 -64.3378831268 -403.481521723 0 -482.875759705 0 -483.539562483 482.875759705 -90 -64.3378831268 79.394237982 102.19079114 129.030133386 -140.969866614 0.0716845111124 -9.80444637812e-05 -0.000601647453242 0.000609590322298 -99.0741753126 5898.44025489
0.42348728532 0.065285352334 423.719463641 -62.5564196022 -419.071287579 0 -496.510255622 0 -496.863606236 496.510255622 -90 -62.5564196022 77.4389680431 99.5501635649 128.941963038 -141.058036962 0.0175714791104 -1.9545199577e-05 -0.000128541153319 0.000130019486527 -98.5020607683 1560.64244844
0.42348728532 0.066940436362 436.111728953 -61.1469899375 -431.800256124 0 -507.688035838 0 -507.78426531 507.688035838 -90 -61.1469899375 75.8877797144 97.4578625055 128.870349919 -141.129650081 0.00341013731466 -3.11867518505e-06 -2.16595677265e-05 2.1883032408e-05 -98.0708100591 321.749853051
0.42348728532 0.068319673052 446.277403885 -60.0208145793 -442.220120338 0 -516.865477171 0 -516.748975643 516.865477171 -90 -60.0208145793 74.6453568334 95.7838468348 128.811973454 -141.188026546 0.000391093106085 -2.95405449217e-07 -2.14504882306e-06 2.16530112564e-06 -97.7394251992 38.814370801
0.42348728532 0.06946903696 454.631193423 -59.1138886305 -450.769400619 0 -524.412152241 0 -524.119736854 524.412152241 -90 -59.1138886305 73.642751622 94.4342029475 128.764226845 -141.235773155 1.78083017789e-05 -1.10906806263e-08 -8.36131727175e-08 8.43457633623e-08 -97.4808988044 1.84772488023
0.42348728532 0.070426840216 461.507609348 -58.3789443054 -457.798396486 0 -530.627243297 0 -530.189373341 530.627243297 -90 -58.3789443054 72.8288468108 93.3394317349 128.725059719 -141.274940281 3.04905869841e-07 -1.56487559723e-10 -1.21692161276e-09 1.22694552758e-09 -97.2767700277 0.0328131406339
0.42348728532 0.071225009597 467.176834234 -57.7803650273 -463.588125614 0 -535.753099591 0 -535.194934499 535.753099591 -90 -57.7803650273 72.1649739766 92.4470547401 128.692849737 -141.307150263 2.87921491466e-09 -1.2204664086e-12 -9.73368520941e-12 9.80992980428e-12 -97.1140269999 0.000319027332596
0.42348728532 0.071890150747 471.857524311 -57.2908604825 -468.364900392 0 -539.986294861 0 -539.328599484 539.986294861 -90 -57.2908604825 71.6213944688 91.7167807946 128.666304669 -141.333695331 6.97900307169e-16 -2.45217772252e-19 -1.99982909757e-18 2.01481282749e-18 -96.9832598322 7.99371607949e-11
0.42348728532 0.07244443504 475.727053484 -56.8892271274 -472.311639993 0 -543.486563763 0 -542.746472423 543.486563763 -90 -56.8892271274 71.17492377 91.117246993 128.644388803 -141.355611197 6.41536243634e-20 -1.86479970865e-23 -1.547050124e-22 1.55825298818e-22 -96.8775144477 7.49143507382e-15
0.42348728532 0.072906338616 478.929673485 -56.5587986175 -475.576697972 0 -546.38398051 0 -545.575634933 546.38398051 -90 -56.5587986175 70.8072825379 90.6237600595 128.626267393 -141.373732607 4.59460353867e-23 -1.10599950947e-26 -9.30445952886e-26 9.3699889499e-26 -96.7915563927 5.44670037474e-18
0.42348728532 0.073291258264 480.498961157 -56.3973859456 -477.176210132 0 -547.8038174 0 -547.91978329 547.8038174 -90 -56.3973859456 70.627607268 90.3826308478 128.617391956 -141.382608044 7.70997777451e-26 -1.53833220795e-29 -1.30894263827e-28 1.31795496456e-28 -96.749832447 9.24520988098e-21
0.43257273777 0.052842226144 284.082269788 -63.0152521743 -277.005079378 0 -351.790654127 0 -364.923087778 351.790654127 -90 -63.0152521743 74.7855747495 97.7947043413 130.117903915 -139.882096085 24.3947305477 -0.0375871892856 -0.165227337706 0.169448723583 -102.815978332 984360.749683
0.43257273777 0.05553346093 292.63478246 -61.7993472657 -286.018160269 0 -359.534316122 0 -381.704865066 359.534316122 -90 -61.7993472657 73.5161558525 96.0406032479 130.049928558 -139.950071442 13.9308235559 -0.0213614200261 -0.095118549402 0.0974901662997 -102.210060045 570804.657308
0.43257273777 0.058224695716 325.9856124 -61.1140993415 -320.190901053 0 -393.714043626 0 -398.161070118 393.714043626 -90 -61.1140993415 73.5231425733 95.6073105217 129.743701595 -140.256298405 1.43277327607 -0.00212865981054 -0.0105972003033 0.0108092524697 -100.839834375 68420.2332175
0.43257273777 0.060915930501 346.218138842 -60.3845057155 -340.901338959 0 -414.008242725 0 -414.260786265 414.008242725 -90 -60.3845057155 73.1069037654 94.8211240109 129.566480599 -140.433519401 0.267904592102 -0.00039253017502 -0.00215874255373 0.00219417717249 -100.062045216 15745.8442896
0.43257273777 0.063299251501 361.442458452 -58.4870933306 -356.67252422 0 -427.76610484 0 -428.194112922 427.76610484 -90 -58.4870933306 71.0935806202 92.0606311564 129.453886758 -140.546113242 0.0666427183275 -8.28350660911e-05 -0.000494699960005 0.000501592354335 -99.3262621235 4294.13376238
0.43257273777 0.065285352334 374.301006177 -56.9480689543 -369.939251766 0 -439.395151498 0 -439.55385813 439.395151498 -90 -56.9480689543 69.4558997321 89.8182364361 129.35933242 -140.64066758 0.0161827625505 -1.63888594133e-05 -0.000104581868942 0.000105858882499 -98.7629648459 1122.15927002
0.43257273777 0.066940436362 384.800164848 -55.7293539486 -380.740259235 0 -448.895842873 0 -448.834092528 448.895842873 -90 -55.7293539486 68.155583638 88.0400313991 129.282435464 -140.717564536 0.00306420539094 -2.55497751314e-06 -1.71766090847e-05 1.73656622356e-05 -98.3377372033 225.182165873
0.43257273777 0.068319673052 393.391621765 -54.7548096052 -389.560147571 0 -456.673469724 0 -456.431243439 456.673469724 -90 -54.7548096052 67.1133221528 86.616300918 129.219681106 -140.780318894 0.000334893861119 -2.30796251907e-07 -1.61914450724e-06 1.6355157675e-06 -98.0105938609 25.8375604388
0.43257273777 0.06946903696 400.437076169 -53.9694740689 -396.781635099 0 -463.053329264 0 -462.663265839 463.053329264 -90 -53.9694740689 66.2716941642 85.467731982 129.168304477 -140.831695523 1.41493776686e-05 -8.0436333599e-09 -5.84888675852e-08 5.90395356711e-08 -97.7551295772 1.13912415629
0.43257273777 0.070426840216 406.226422261 -53.3327046465 -402.708602098 0 -468.296685639 0 -467.785396195 468.296685639 -90 -53.3327046465 65.5880835413 84.5355666358 129.126125484 -140.873874516 2.28313016956e-07 -1.0701385834e-10 -8.01457067147e-10 8.08572153116e-10 -97.5532576537 0.0190296795299
0.43257273777 0.071225009597 410.992477972 -52.8138377952 -407.583496961 0 -472.613713964 0 -472.002891509 472.613713964 -90 -52.8138377952 65.0302170027 83.775387958 129.091415043 -140.908584957 2.07141862076e-09 -8.02223910521e-13 -6.15410950507e-12 6.20619315527e-12 -97.3922073046 0.000177483711931
0.43257273777 0.071890150747 414.922728015 -52.3893502753 -411.600629441 0 -476.173876389 0 -475.481216174 476.173876389 -90 -52.3893502753 64.5732469477 83.1530575933 129.062792974 -140.937207026 4.17553897101e-16 -1.34077036852e-19 -1.05043003136e-18 1.05895500517e-18 -97.262728777 3.69086350016e-11
0.43257273777 0.07244443504 418.168611128 -52.0409454449 -414.916394565 0 -479.114176279 0 -478.354130019 479.114176279 -90 -52.0409454449 64.1977817139 82.64197532 129.039151032 -140.960848968 3.75986600327e-20 -9.99004975684e-24 -7.95457885438e-23 8.01708606283e-23 -97.1579771386 3.38364931322e-15
0.43257273777 0.072906338616 420.852838477 -51.7542277086 -417.657178215 0 -481.545695784 0 -480.730084529 481.545695784 -90 -51.7542277086 63.8885175692 82.2211784551 129.019594584 -140.980405416 2.68551107804e-23 -5.90996404073e-27 -4.76836251891e-26 4.80485985935e-26 -97.0727939956 2.45050513137e-18
0.43257273777 0.073291258264 414.701964154 -50.8726595528 -411.568833976 0 -474.269729836 0 -482.697274101 474.269729836 -90 -50.8726595528 62.7008958603 80.7434151273 129.063242088 -140.936757912 3.22813620868e-26 -5.88844784694e-30 -4.80224793393e-29 4.83822763321e-29 -97.0537400218 2.97624467792e-21
0.43257273777 0.073612024636 396.784588387 -49.0930908811 -393.735797216 0 -453.949206206 0 -484.327626955 453.949206206 -90 -49.0930908811 60.2134089905 77.6903223993 129.190988852 -140.809011148 5.03549406457e-29 -7.20440063416e-33 -5.77806444093e-32 5.82280538645e-32 -97.1072656454 3.96389081392e-24
0.44165819021 0.050150991358 237.258727243 -58.8744921008 -229.837981702 0 -298.308885342 0 -309.128897407 298.308885342 -90 -58.8744921008 68.4709036398 90.3021066497 130.690487102 -139.309512898 46.5507511638 -0.0670119127554 -0.261605361305 0.270051775619 -104.367751312 1310210.54467
0.44165819021 0.052842226144 257.901271294 -59.5338798369 -250.917025649 0 -320.73777294 0 -324.03604283 320.73777294 -90 -59.5338798369 69.8207472911 91.7571968281 130.463923243 -139.536076757 31.1727735485 -0.0453000407101 -0.187518937732 0.192929071465 -103.390119472 1004456.46434
0.44165819021 0.05553346093 276.195972229 -58.7345989888 -269.862747829 0 -339.199271229 0 -338.644014812 339.199271229 -90 -58.7345989888 69.3365234004 90.870520477 130.279564692 -139.720435308 13.3266461656 -0.0194650371498 -0.0860814402183 0.0882570026682 -102.301488807 490724.537206
0.44165819021 0.058224695716 291.960787455 -56.5606941292 -286.417410811 0 -353.526388176 0 -352.928471548 353.526388176 -90 -56.5606941292 67.1089773648 87.7659187407 130.136089321 -139.863910679 1.77706481725 -0.00250450948916 -0.0122317340595 0.0124857226649 -101.190643698 73644.0187731
0.44165819021 0.060915930501 306.479058018 -54.6614956169 -301.556427643 0 -366.721728341 0 -366.86382247 366.721728341 -90 -54.6614956169 65.1653006981 85.055925929 130.001367041 -139.998632959 0.24841603626 -0.000329138902455 -0.00177069799931 0.00180105805809 -100.290488606 11445.6936425
0.44165819021 0.063299251501 319.541791634 -53.0317719059 -315.104954826 0 -378.598533766 0 -378.891800437 378.598533766 -90 -53.0317719059 63.4935789405 82.7279004952 129.880552194 -140.119447806 0.0623428365095 -7.02318026185e-05 -0.000408940778994 0.000414931820561 -99.5662332476 3139.77390373
0.44165819021 0.065285352334 330.554022622 -51.708824921 -326.481021648 0 -388.613823832 0 -388.675962828 388.613823832 -90 -51.708824921 62.132802184 80.8355122563 129.779038156 -140.220961844 0.0150004391369 -1.37927682384e-05 -8.55868814342e-05 8.66916471635e-05 -99.010718833 811.050998722
0.44165819021 0.066940436362 339.531441564 -50.6604497893 -335.728267045 0 -396.779868149 0 -396.654446543 396.779868149 -90 -50.6604497893 61.0516011047 79.333879567 129.696430725 -140.303569275 0.00277454369921 -2.10316382799e-06 -1.37201704657e-05 1.38804807643e-05 -98.5907135809 158.670339958
0.44165819021 0.068319673052 346.868261611 -49.8215755382 -343.269764985 0 -403.454183364 0 -403.17639264 403.454183364 -90 -49.8215755382 60.1844183784 78.1308749071 129.628977189 -140.371022811 0.00028971955474 -1.81626615916e-07 -1.23433443427e-06 1.24762886704e-06 -98.2671753991 17.3649376753
0.44165819021 0.06946903696 352.878665333 -49.1451895179 -349.438203166 0 -408.921970294 0 -408.520197221 408.921970294 -90 -49.1451895179 59.4837671282 77.1598614253 129.573725052 -140.426274948 1.14265678728e-05 -5.91116967526e-09 -4.15749851409e-08 4.19932098181e-08 -98.014259247 0.713406278424
0.44165819021 0.070426840216 357.813443779 -48.5964937818 -354.496730018 0 -413.411108721 0 -412.908253031 413.411108721 -90 -48.5964937818 58.9143787029 76.3714354361 129.528344202 -140.471655798 1.74880532856e-07 -7.4629973621e-11 -5.39922534531e-10 5.45057210409e-10 -97.8142249046 0.0112876367379
0.44165819021 0.071225009597 361.873325907 -48.149208464 -358.654610712 0 -417.104132134 0 -416.518688481 417.104132134 -90 -48.149208464 58.4495214222 75.7282202397 129.490984616 -140.509015384 1.53401816479e-09 -5.41122148246e-13 -4.00568743932e-12 4.04208123745e-12 -97.6545230844 0.000101654863695
0.44165819021 0.071890150747 365.219501363 -47.7831537892 -362.079101775 0 -420.147697584 0 -419.494631034 420.147697584 -90 -47.7831537892 58.0685958087 75.2014641202 129.460168063 -140.539831937 2.62373503755e-16 -7.6740766056e-20 -5.79488191858e-19 5.84548758729e-19 -97.526049572 1.78975559073e-11
0.44165819021 0.07244443504 367.981870319 -47.4826194874 -364.904520384 0 -422.660031672 0 -421.95147958 422.660031672 -90 -47.4826194874 57.7555112884 74.7687455656 129.434706448 -140.565293552 2.3326230019e-20 -5.64708182015e-24 -4.33065636956e-23 4.36732942589e-23 -97.4220573055 1.61845294205e-15
0.44165819021 0.072906338616 370.265495311 -47.2352346337 -367.239211426 0 -424.736770056 0 -423.982601525 424.736770056 -90 -47.2352346337 57.4975586302 74.4123812878 129.413639867 -140.586360133 1.6741755179e-23 -3.35763910269e-27 -2.60755282301e-26 2.62908741705e-26 -97.3374550365 1.17684762326e-18
0.44165819021 0.073291258264 372.15564825 -47.0311651959 -369.170928944 0 -426.455535937 0 -425.663796781 426.455535937 -90 -47.0311651959 57.2846069933 74.1182943361 129.396189219 -140.603810781 1.5893887926e-26 -2.64226656802e-30 -2.07313075649e-29 2.08990597149e-29 -97.2683416238 1.12816614719e-21
0.44165819021 0.073612024636 373.081872825 -46.9313385156 -370.117342825 0 -427.297735225 0 -427.056802006 427.297735225 -90 -46.9313385156 57.1803924003 73.9744016952 129.3876341 -140.6123659 4.26378202229e-29 -5.88029313183e-33 -4.65218595033e-32 4.68921262229e-32 -97.2347060869 3.04760115727e-24
0.45074364266 0.050150991358 224.20692188 -55.8494522953 -217.139420165 0 -281.557584865 0 -274.479066232 281.557584865 -90 -55.8494522953 64.4181646995 85.2584191757 130.939459957 -139.060540043 45.7072902794 -0.0624793367369 -0.242935357171 0.250841231839 -104.427624868 1155185.36659
0.45074364266 0.052842226144 231.267057442 -54.8455501446 -224.65247399 0 -288.039343531 0 -287.546232093 288.039343531 -90 -54.8455501446 63.3868695409 83.8216218826 130.881379706 -139.118620294 33.744334811 -0.0456048895785 -0.183423820698 0.189020379229 -103.744349901 889283.928439
0.45074364266 0.05553346093 245.237369168 -52.8750397455 -239.455933938 0 -300.856526891 0 -300.329551927 300.856526891 -90 -52.8750397455 61.4005929524 81.0304026006 130.745679569 -139.254320431 12.2189289654 -0.0160582142419 -0.0700086057962 0.0718282836293 -102.473184511 354472.273533
0.45074364266 0.058224695716 258.891850056 -51.0144949836 -253.805434991 0 -313.370916217 0 -312.809145999 313.370916217 -90 -51.0144949836 59.5654812259 78.4259869735 130.589979655 -139.410020345 1.50768097037 -0.00191327322558 -0.00919930245437 0.00939632434729 -101.383424388 49159.9338419
0.45074364266 0.060915930501 271.452689364 -49.389417096 -266.914409397 0 -324.878517175 0 -324.964586398 324.878517175 -90 -49.389417096 57.9641077781 76.1528063971 130.44475569 -139.55524431 0.23222042841 -0.000277760964601 -0.00146516547134 0.00149128489595 -100.498526486 8396.44466423
0.45074364266 0.063299251501 282.743359282 -47.9942860783 -278.635569917 0 -335.221902148 0 -335.441859043 335.221902148 -90 -47.9942860783 56.5863322307 74.1993994856 130.31460748 -139.68539252 0.0587025098414 -5.98285951454e-05 -0.000340583497742 0.000345801604738 -99.7850584727 2314.83141101
0.45074364266 0.065285352334 292.254041838 -46.8611804225 -288.469691223 0 -343.934006305 0 -343.955557342 343.934006305 -90 -46.8611804225 55.4643150822 72.6108697033 130.20526388 -139.79473612 0.0140033491329 -1.16688250548e-05 -7.06264387277e-05 7.15842776199e-05 -99.2368098 591.778844916
0.45074364266 0.066940436362 300.00267004 -45.9627840957 -296.458824596 0 -351.031200859 0 -350.892696247 351.031200859 -90 -45.9627840957 54.572376263 71.3497973067 130.116281396 -139.883718604 0.00253480495627 -1.74349157831e-06 -1.10739512854e-05 1.12103936403e-05 -98.8216607915 113.143439587
0.45074364266 0.068319673052 306.332559687 -45.2435764651 -302.971549677 0 -356.828192207 0 -356.560316974 356.828192207 -90 -45.2435764651 53.8566425293 70.339081796 130.043614396 -139.956385604 0.000253946887623 -1.44548834088e-07 -9.55050625235e-07 9.659296221e-07 -98.5014580634 11.8657122883
0.45074364266 0.06946903696 311.516576608 -44.6634309222 -308.296991605 0 -361.575083755 0 -361.202386623 361.575083755 -90 -44.6634309222 53.2780921501 69.522953123 129.984084225 -140.015915775 9.43066352259e-06 -4.4314977899e-09 -3.02620454073e-08 3.05848520174e-08 -98.250885683 0.458382900609
0.45074364266 0.070426840216 315.772061022 -44.1926306964 -312.663384504 0 -365.471119604 0 -365.01326495 365.471119604 -90 -44.1926306964 52.8077351 68.8600515907 129.935183357 -140.064816643 1.37944781028e-07 -5.34954406656e-11 -3.75348735977e-10 3.79142429725e-10 -98.0525308931 0.00692275319028
0.45074364266 0.071225009597 319.272681651 -43.8087192132 -316.251944909 0 -368.675532406 0 -368.148307116 368.675532406 -90 -43.8087192132 52.4235874973 68.319071718 129.894921028 -140.105078972 1.17933731878e-09 -3.78168834118e-13 -2.71244506692e-12 2.73868549275e-12 -97.8940535614 6.06935452361e-05
0.45074364266 0.071890150747 322.157727727 -43.494441117 -319.207340873 0 -371.316038931 0 -370.732152759 371.316038931 -90 -43.494441117 52.1086980579 67.8759188119 129.861706412 -140.138293588 1.76025746676e-16 -4.67946966657e-20 -3.42017204288e-19 3.45204221746e-19 -97.7664866001 9.30274727656e-12
0.45074364266 0.07244443504 324.539351436 -43.2363540515 -321.645650066 0 -373.495467143 0 -372.865184713 373.495467143 -90 -43.2363540515 51.8498170769 67.5117921824 129.83426071 -140.16573929 1.56267211869e-20 -3.43840243491e-24 -2.55039018865e-23 2.57346868538e-23 -97.6631748618 8.3878820896e-16
0.45074364266 0.072906338616 326.508205171 -43.0238663617 -323.660448234 0 -375.29692049 0 -374.628558633 375.29692049 -90 -43.0238663617 51.6364722554 67.2118557065 129.811550538 -140.188449462 1.13959504405e-23 -2.07705714283e-27 -1.55920380829e-26 1.57298047188e-26 -97.5790898977 6.18847491004e-19
0.45074364266 0.073291258264 328.137834788 -42.8485535798 -325.327496104 0 -376.787806683 0 -376.088125692 376.787806683 -90 -42.8485535798 51.4603105786 66.9642925331 129.792736979 -140.207263021 1.11673115093e-26 -1.68690595498e-30 -1.27871624406e-29 1.28979771268e-29 -97.5103742087 6.11543736037e-22
0.45074364266 0.073612024636 328.936402477 -42.7627861738 -326.14424486 0 -377.518335767 0 -377.297500943 377.518335767 -90 -42.7627861738 51.3740909073 66.8431520929 129.783513319 -140.216486681 3.13346434238e-29 -3.92601870378e-33 -2.99958216061e-32 3.02517189004e-32 -97.4769257846 1.7258524274e-24
0.45982909511 0.050150991358 199.652472619 -50.0963073252 -193.265214271 0 -250.024439421 0 -243.765649189 250.024439421 -90 -50.0963073252 56.7592251493 75.705787844 131.44739638 -138.55260362 44.1719270944 -0.0541527489874 -0.20892546567 0.215829566199 -104.534528677 884882.205665
0.45982909511 0.052842226144 205.806417917 -49.2364315538 -199.815519236 0 -255.730064188 0 -255.27524006 255.730064188 -90 -49.2364315538 55.9145449529 74.5035506351 131.379971894 -138.620028106 32.2733792855 -0.0391461667263 -0.155957760166 0.160805433385 -103.865607673 672865.491148
0.45982909511 0.05553346093 217.980608043 -47.5501019936 -212.719667198 0 -267.007660592 0 -266.525137782 267.007660592 -90 -47.5501019936 54.2879933938 72.1685880463 131.227597129 -138.772402871 11.3361187857 -0.0133864448453 -0.057670798798 0.059205219955 -102.620250642 259553.639132
0.45982909511 0.058224695716 229.874247599 -45.9599931564 -225.223974459 0 -278.009875391 0 -277.499374797 278.009875391 -90 -45.9599931564 52.7859009325 69.9911940251 131.057992537 -138.942007463 1.31801778592 -0.00150400282426 -0.00713505478311 0.00729197771311 -101.550750753 33864.470354
0.45982909511 0.060915930501 240.811813368 -44.5717329756 -236.64471143 0 -288.120277893 0 -288.181845034 288.120277893 -90 -44.5717329756 51.4755664623 68.0915353235 130.900653791 -139.099346209 0.219473041049 -0.000236642767317 -0.0012272630115 0.00124988836127 -100.680567398 6241.81410455
0.45982909511 0.063299251501 250.641612845 -43.3798018636 -246.855196884 0 -297.203444433 0 -297.385507401 297.203444433 -90 -43.3798018636 50.3482475489 66.4592144615 130.75981114 -139.24018886 0.0558465822512 -5.14086086293e-05 -0.000286989937468 0.000291560462797 -99.977586181 1729.04293311
0.45982909511 0.065285352334 258.921303554 -42.4115351229 -255.421726537 0 -304.85179684 0 -304.862651967 304.85179684 -90 -42.4115351229 49.4300703036 65.1316869277 130.641558051 -139.358441949 0.0132421309738 -9.98094295674e-06 -5.91200810295e-05 5.99569574202e-05 -99.4364593369 438.656436708
0.45982909511 0.066940436362 265.667425679 -41.6436388805 -262.381651798 0 -311.08164592 0 -310.954886498 311.08164592 -90 -41.6436388805 48.6999941215 64.0776341669 130.545364131 -139.454635869 0.00235950862417 -1.46931680396e-06 -9.11813347636e-06 9.23578287272e-06 -99.0261097147 82.4213726552
0.45982909511 0.068319673052 271.179156458 -41.0287400725 -268.056240762 0 -316.170216923 0 -315.932553735 316.170216923 -90 -41.0287400725 48.1139761616 63.2326606273 130.46682844 -139.53317156 0.00022936721478 -1.18229860415e-07 -7.62148430583e-07 7.71265539203e-07 -98.7092305404 8.37089300814
0.45982909511 0.06946903696 275.693993676 -40.5326079757 -272.697256702 0 -320.33739335 0 -320.010084674 320.33739335 -90 -40.5326079757 47.6401366477 62.5502126577 130.402501775 -139.597498225 8.16685404073e-06 -3.47494952099e-09 -2.31226039239e-08 2.33822953082e-08 -98.4610129468 0.309294750642
0.45982909511 0.070426840216 279.400964143 -40.1298911567 -276.503313516 0 -323.758110528 0 -323.358112494 323.758110528 -90 -40.1298911567 47.2547970125 61.9957731899 130.349667141 -139.650332859 1.16155466262e-07 -4.07873985901e-11 -2.78551890474e-10 2.81522652165e-10 -98.2643597139 0.00453217462541
0.45982909511 0.071225009597 282.451053118 -39.8014279528 -279.632056992 0 -326.572056979 0 -326.112935169 326.572056979 -90 -39.8014279528 46.9399999878 61.5432155182 130.306169513 -139.693830487 9.82558893484e-10 -2.8529742952e-13 -1.98996939643e-12 2.01031958185e-12 -98.1071333006 3.9248588382e-05
0.45982909511 0.071890150747 284.965342392 -39.5324903585 -282.209327089 0 -328.891222638 0 -328.383867977 328.891222638 -90 -39.5324903585 46.6818955487 61.1724274221 130.270287928 -139.729712072 9.54513076664e-17 -2.34332574516e-20 -1.67252477011e-19 1.68886258456e-19 -97.9805001389 4.10171003316e-12
0.45982909511 0.07244443504 287.041331521 -39.3116009018 -284.33610352 0 -330.805757584 0 -330.258946037 330.805757584 -90 -39.3116009018 46.469654064 60.8677115757 130.240639613 -139.759360387 1.22399646295e-20 -2.43484155433e-24 -1.7529611316e-23 1.76979285398e-23 -97.8778950644 5.06452559258e-16
0.45982909511 0.072906338616 288.757845679 -39.129712852 -286.093808256 0 -332.388520681 0 -331.809350101 332.388520681 -90 -39.129712852 46.2947124244 60.6166770198 130.216107518 -139.783892482 9.25718403725e-24 -1.52521774672e-27 -1.11074038496e-26 1.1211649931e-26 -97.7943514646 3.87024705868e-19
0.45982909511 0.073291258264 290.178853883 -38.9796280042 -287.548381184 0 -333.698618674 0 -333.092850193 333.698618674 -90 -38.9796280042 46.1502374896 60.4094513053 130.195785011 -139.804214989 9.54047020065e-27 -1.30266443447e-30 -9.57558960717e-30 9.66380563945e-30 -97.726055079 4.01835292207e-22
0.45982909511 0.073612024636 285.984327384 -38.331949422 -283.403419968 0 -328.713011523 0 -334.156495092 328.713011523 -90 -38.331949422 45.3095915553 59.3492847695 130.240917992 -139.759082008 2.01073844375e-29 -2.27663623518e-33 -1.68622440341e-32 1.70152650904e-32 -97.7078540256 8.51088431733e-25
0.45982909511 0.073879329947 274.246098831 -36.953753013 -271.744996021 0 -315.206758683 0 -335.038722642 315.206758683 -90 -36.953753013 43.4617626628 57.0482661919 130.373149215 -139.626850785 7.9755177059e-32 -7.15766852795e-36 -5.26349950156e-35 5.31194401236e-35 -97.7439722375 2.99923022931e-27
0.46891454755 0.050150991358 178.059992722 -44.9210334051 -172.300468407 0 -222.25958245 0 -216.711522575 222.25958245 -90 -44.9210334051 49.9591140428 67.1856561274 131.976617285 -138.023382715 42.9209183998 -0.0471764194976 -0.180956799986 0.187005319224 -104.614352064 683600.872255
0.46891454755 0.052842226144 183.449653728 -44.1847186053 -178.036712265 0 -227.30787744 0 -226.898466849 227.30787744 -90 -44.1847186053 49.2711651748 66.1818593572 131.899220704 -138.100779296 31.1009225213 -0.0338435172609 -0.133858996971 0.138078985576 -103.95944238 514740.259782
0.46891454755 0.05553346093 194.112138502 -42.7418099585 -189.338214234 0 -237.285119557 0 -236.85316083 237.285119557 -90 -42.7418099585 47.9469053236 64.2328635988 131.728634912 -138.271365088 10.6684120476 -0.0113145050079 -0.048292886375 0.0496015137047 -102.739265484 193552.358808
0.46891454755 0.058224695716 204.530086082 -41.3829829231 -200.292196272 0 -247.017239948 0 -246.562812954 247.017239948 -90 -41.3829829231 46.7250436767 62.4168514574 131.543252403 -138.456747597 1.1897380649 -0.00122049793378 -0.00572692092516 0.0058556353769 -101.68956667 24189.355808
0.46891454755 0.060915930501 214.112943375 -40.197482339 -210.300422206 0 -255.96045771 0 -256.014711662 255.96045771 -90 -40.197482339 45.6600355045 60.833781706 131.372049421 -138.627950579 0.210104906109 -0.000204120747836 -0.00104387837157 0.00106366327003 -100.833880899 4722.8351185
0.46891454755 0.063299251501 222.72837254 -39.1799291616 -219.251950251 0 -263.996184758 0 -264.159882078 263.996184758 -90 -39.1799291616 44.7442345067 59.4741719232 131.21902348 -138.78097652 0.0538923364104 -4.477689514e-05 -0.00024593349598 0.000249978474458 -100.14136179 1316.77642988