TITLE = "Electromagnetic Field"
VARIABLES = X Y E ER EI EvR EvI EvR' EvI' Ev EvPhase EpR EpI Ep EpPhase EpToEvPhaseShift elConductivity Jr Ji J Jphase QJ
ZONE N=317, E=277, F=FEPOINT, ET=QUADRILATERAL
0.80864786426 0.040838016007 8.67613637214 -1.82632662994 -8.4817376397 0 -9.46510477458 0 -9.62385542233 9.46510477458 -90 -1.82632662994 0.983367134875 2.07424200159 151.700205199 -118.299794801 92.3177787384 -0.000410799297569 -0.0019078141924 0.00195154068767 -102.151654607 3474.62619967
0.80911261 0.041275810366 8.71033458529 -1.82527326195 -8.51693809193 0 -9.50171285668 0 -9.69989405652 9.50171285668 -90 -1.82527326195 0.984774764755 2.07398333749 151.652163783 -118.347836217 91.2174079148 -0.000402947109889 -0.00188002845687 0.00192272641355 -102.096360683 3460.05085502
0.80958308282 0.041705258349 8.77779557568 -1.82297012449 -8.58640822386 0 -9.57389751159 0 -9.7732099805 9.57389751159 -90 -1.82297012449 0.987489287725 2.0732482204 151.555914904 -118.444085096 89.0352566451 -0.000386506600874 -0.00182031063116 0.00186089259261 -101.986622179 3429.80569293
0.81005914789 0.042124064921 8.84241027994 -1.82030282811 -8.65301401955 0 -9.64297408414 0 -9.84329898709 9.64297408414 -90 -1.82030282811 0.989960064586 2.07208258577 151.46070815 -118.53929185 86.9190723281 -0.000369033925177 -0.00175405741779 0.00179245813172 -101.880067708 3397.77638281
0.81054067629 0.042530487085 8.90386340587 -1.81728957201 -8.7164316296 0 -9.70860483967 0 -9.90978998229 9.70860483967 -90 -1.81728957201 0.992173210067 2.07049556328 151.367064369 -118.632935631 84.8747165003 -0.000351108503586 -0.00168386938982 0.00172008593026 -101.777066209 3364.15274689
0.81102754546 0.042923488911 8.96196989988 -1.81395390108 -8.77646955269 0 -9.7705929631 0 -9.97247824001 9.7705929631 -90 -1.81395390108 0.994123410408 2.06850496427 151.275372277 -118.724627723 82.9051481056 -0.000333304629704 -0.00161245495417 0.00164654332109 -101.67783125 3329.13132614
0.81151964369 0.043302722958 9.01667327333 -1.81032272469 -8.83306710398 0 -9.82888054168 0 -10.0313182986 9.82888054168 -90 -1.81032272469 0.995813437701 2.06613535541 151.185875869 -118.814124131 81.0105826043 -0.00031608122511 -0.00154208441668 0.00157414527141 -101.582424721 3292.90295191
0.8120168608 0.043668379166 9.06802237886 -1.80642405606 -8.88627095915 0 -9.88352329322 0 -10.0863876979 9.88352329322 -90 -1.80642405606 0.997252334074 2.06341524788 151.098689264 -118.901310736 79.1890065727 -0.000299734840766 -0.00147432408517 0.00150448458599 -101.490784671 3255.64104248
0.81251909623 0.044020999354 9.11613590227 -1.80228526131 -8.93619911356 0 -9.93465212334 0 -10.1378426554 9.93465212334 -90 -1.80228526131 0.998453009785 2.06037444132 151.013831581 -118.986168419 77.4367862139 -0.000284404174953 -0.0014100139446 0.00143841100809 -101.402768138 3217.4896768
0.81302624426 0.044361289811 9.16116953017 -1.79793181933 -8.98300753902 0 -9.98243761249 0 -10.185875416 9.98243761249 -90 -1.79793181933 0.999430073469 2.05704191349 150.931262341 -119.068737659 75.7496120578 -0.000270107091147 -0.00134941312858 0.00137618117321 -101.318189311 3178.57291115
0.81353820295 0.044689994078 9.18321327038 -1.79567457405 -9.00594019486 0 -10.0058097701 0 -10.230684596 10.0058097701 -90 -1.79567457405 0.999869575198 2.05528254585 150.890014778 -119.109985222 74.9110735557 -0.000263126313934 -0.00131967110368 0.00134564753148 -101.276200952 3158.67807781
0.81313324595 0.039833818502 8.26737472196 -1.77138936358 -8.07537395518 0 -9.01724908326 0 -9.15902948447 9.01724908326 -90 -1.77138936358 0.941875128081 2.00622756294 151.999730281 -118.000269719 97.3184913908 -0.000407575490015 -0.00185804688935 0.00190222396765 -102.372270412 3325.83437371
0.81360353002 0.040278049803 8.42953633692 -1.78971505397 -8.23734333363 0 -9.19437734576 0 -9.23529798047 9.19437734576 -90 -1.78971505397 0.95703401213 2.02953543227 151.866657958 -118.133342042 94.8694607469 -0.000404283376832 -0.00186062282572 0.00190404082991 -102.25984567 3369.12484092
0.81407978316 0.040716268056 8.54354350208 -1.79784400061 -8.35223082492 0 -9.31817772046 0 -9.30941813582 9.31817772046 -90 -1.79784400061 0.965946895538 2.04090981317 151.753422401 -118.246577599 92.5587088768 -0.000395046170768 -0.00183514024542 0.00187718075925 -102.149033844 3377.11259421
0.81456185391 0.041146155546 8.61018548412 -1.79577133758 -8.42082939817 0 -9.38950256574 0 -9.38088758258 9.38950256574 -90 -1.79577133758 0.968673167572 2.04037719495 151.658442429 -118.341557571 90.3791334754 -0.000379136839333 -0.00177773072694 0.00181771206236 -102.03947539 3349.19149527
0.81504959481 0.041565606053 8.67400163841 -1.79332643367 -8.4865867665 0 -9.45774129551 0 -9.4492581507 9.45774129551 -90 -1.79332643367 0.971154529018 2.03940622474 151.564483013 -118.435516987 88.2661435472 -0.000362262808779 -0.00171419282913 0.00175205498996 -101.933072078 3319.51545077
0.81554286709 0.041973018748 8.73470112528 -1.79052836193 -8.54920373603 0 -9.52258264338 0 -9.51420028082 9.52258264338 -90 -1.79052836193 0.973378907342 2.03800771244 151.472038808 -118.527961192 86.2251364734 -0.000344966518451 -0.00164695159945 0.00168269313701 -101.830176306 3288.26195801
0.81604154185 0.042367439491 8.79211838965 -1.78740174512 -8.60850835329 0 -9.58385093523 0 -9.57553246546 9.58385093523 -90 -1.78740174512 0.975342581941 2.03620122405 151.381478098 -118.618521902 84.2587415492 -0.000327786757618 -0.0015785376378 0.00161221258565 -101.730991125 3255.61767531
0.81654550453 0.042748543901 8.84620956605 -1.78397454659 -8.66445247319 0 -9.64150197098 0 -9.6332148968 9.64150197098 -90 -1.78397454659 0.977049497792 2.03401285501 151.293032013 -118.706967987 82.3669764034 -0.000311154800033 -0.00151107530244 0.00154277982274 -101.635574358 3221.7655241
0.81705464473 0.043116498477 8.89702897636 -1.78027564328 -8.71708806324 0 -9.69559743317 0 -9.68731707889 9.69559743317 -90 -1.78027564328 0.978509369933 2.03147223255 151.206809457 -118.793190543 80.5477396932 -0.000295349962753 -0.00144603301595 0.00147588832698 -101.543865614 3186.8725459
0.81756886355 0.043471791664 8.94469467457 -1.77633299261 -8.76653225902 0 -9.74626757247 0 -9.73797851381 9.74626757247 -90 -1.77633299261 0.979735313446 2.02860980206 151.122830709 -118.877169291 78.7974979749 -0.000280503835321 -0.00138420263194 0.00141233927209 -101.455727585 3151.08191635
0.8180880576 0.043815061676 8.98935734389 -1.77217239923 -8.81293578537 0 -9.79367756369 0 -9.78537065727 9.79367756369 -90 -1.77217239923 0.980741778323 2.02545477337 151.041060947 -118.958939053 77.1120697098 -0.000266634357404 -0.00132583232133 0.00135237856651 -101.370982504 3114.51670763
0.81861212754 0.044146980963 9.0112284496 -1.77001240047 -8.83567899862 0 -9.81687612544 0 -9.8296706786 9.81687612544 -90 -1.77001240047 0.98119712682 2.02378539762 151.000205768 -118.999794232 76.2745003276 -0.000259857019074 -0.00129716124863 0.00132293405118 -101.328906569 3095.81331002
0.81787210419 0.039296546606 8.11475910707 -1.74579137125 -7.92473789972 0 -8.84936745812 0 -8.80355184071 8.84936745812 -90 -1.74579137125 0.924629558399 1.97553495886 152.094334117 -117.905665883 98.6227668637 -0.000399575396749 -0.0018138518675 0.00185734274802 -102.424639913 3246.63669587
0.81835265298 0.039741444002 8.14891036007 -1.74528223254 -7.95981202271 0 -8.88597859493 0 -8.8780954889 8.88597859493 -90 -1.74528223254 0.926166572224 1.9758057485 152.048046964 -117.951953036 97.4950541414 -0.000393083770577 -0.00179266578804 0.00183525793597 -102.368327406 3236.30353373
0.81883926749 0.040180144075 8.21637138486 -1.74406458548 -8.02912667486 0 -8.95827206314 0 -8.95050105695 8.95827206314 -90 -1.74406458548 0.929145388286 1.97612916899 151.955211388 -118.044788612 95.2597412526 -0.000379396224338 -0.00174651158516 0.00178724648414 -102.256497214 3214.6404144
0.81933178788 0.040610527462 8.28145972813 -1.74245785433 -8.09606660552 0 -9.02796771314 0 -9.0203227562 9.02796771314 -90 -1.74245785433 0.931901107619 1.97600945608 151.862790057 -118.137209943 93.0848606613 -0.000364521069984 -0.00169356916083 0.00173235603148 -102.147311779 3191.17893147
0.819830059 0.041030668323 8.34382927346 -1.74047372702 -8.16027685166 0 -9.0946939107 0 -9.08716319256 9.0946939107 -90 -1.74047372702 0.934417059038 1.97544895597 151.771306739 -118.228693261 90.9771775243 -0.000348814463299 -0.00163529805482 0.00167208733823 -102.041202714 3166.04572294
0.82033393594 0.041439101566 8.40322227713 -1.73813035022 -8.22149193579 0 -9.15817491223 0 -9.15073039537 9.15817491223 -90 -1.73813035022 0.936682976438 1.97445861905 151.68121262 -118.31878738 88.9414151689 -0.000332746730656 -0.00157378217978 0.00160857547261 -101.938494007 3139.39055837
0.82084328561 0.041834951061 8.45949222672 -1.73545124688 -8.27955929456 0 -9.21825536401 0 -9.2108638157 9.21825536401 -90 -1.73545124688 0.938696069448 1.9730575803 151.592846832 -118.407153168 86.9797078789 -0.000316786843739 -0.001511203788 0.00154405137228 -101.839373695 3111.37185376
0.82135799127 0.042217914316 8.51260049857 -1.73246330616 -8.33443609318 0 -9.27489648719 0 -9.26752866927 9.27489648719 -90 -1.73246330616 0.940460394009 1.97127112632 151.506426818 -118.493573182 85.0918140966 -0.000301311575977 -0.00144940076659 0.00148039003872 -101.743897552 3082.14785548
0.8218779418 0.042588135318 8.56259554579 -1.72919451396 -8.38616826432 0 -9.32815341593 0 -9.32078707849 9.32815341593 -90 -1.72919451396 0.941985151617 1.96912792425 151.422061359 -118.577938641 83.2756247565 -0.0002865664436 -0.00138965033768 0.00141889091318 -101.652013436 3051.86782757
0.82240303862 0.042946051429 8.60958224719 -1.72567218838 -8.43485944107 0 -9.37814200226 0 -9.37076331023 9.37814200226 -90 -1.72567218838 0.943282561195 1.96665748337 151.339780481 -118.660219519 81.5277994254 -0.000272668675453 -0.00133264837291 0.00136025828088 -101.563598968 3020.66503778
0.82293317903 0.043292235775 8.65369446893 -1.72192176347 -8.48064311522 0 -9.4250091319 0 -9.41760990578 9.4250091319 -90 -1.72192176347 0.944366016678 1.96388822422 151.25956501 -118.74043499 79.8444384278 -0.000259636232773 -0.00127862110988 0.00130471656631 -101.478494519 2988.65740264
0.82346826454 0.043627292861 8.67531060872 -1.71996753096 -8.50309706559 0 -9.44795855723 0 -9.46148453862 9.44795855723 -90 -1.71996753096 0.944861491634 1.96241305696 151.219475476 -118.780524524 79.0081340561 -0.000253257027166 -0.00125203466048 0.00127739240134 -101.436231336 2972.25950219
0.82241879063 0.038781083913 7.81527844623 -1.69557871369 -7.62912427436 0 -8.52002142561 0 -8.47573720116 8.52002142561 -90 -1.69557871369 0.890897151253 1.91538360728 152.282886207 -117.717113793 101.255038542 -0.000383656759127 -0.00172627927433 0.00176839909102 -102.531346126 3091.84041801
0.82290849691 0.039226699234 7.84868910322 -1.69529538179 -7.6634053211 0 -8.5558539192 0 -8.54873607402 8.5558539192 -90 -1.69529538179 0.892448598104 1.91585563367 152.2378872 -117.7621128 100.128590405 -0.000377503116303 -0.00170637937411 0.00174763977293 -102.475274159 3083.38143201
0.82340435854 0.039665940059 7.91470404993 -1.6945286994 -7.73117065921 0 -8.62662858887 0 -8.61960760317 8.62662858887 -90 -1.6945286994 0.895457929656 1.91658147791 152.147607468 -117.852392532 97.8960415286 -0.000364585084841 -0.00166329798085 0.00170278820783 -102.363880354 3065.52848965
0.82390621168 0.040096876872 7.97840462733 -1.69336861479 -7.79662304785 0 -8.69486951277 0 -8.68795751928 8.69486951277 -90 -1.69336861479 0.898246464921 1.91686106942 152.057716174 -117.942283826 95.7253682159 -0.000350650494314 -0.00161436084321 0.00165200529875 -102.255092317 3045.97344337
0.82441389743 0.040517756382 8.03948485423 -1.69182649673 -7.85944838415 0 -8.76024825378 0 -8.75343462263 8.76024825378 -90 -1.69182649673 0.900799869631 1.91669765151 151.96868788 -118.03131212 93.6224193585 -0.000336004745251 -0.00156080875698 0.00159656742273 -102.149304146 3024.81960855
0.82492726775 0.040927243257 8.09771707605 -1.68991976445 -7.91941183259 0 -8.82252136562 0 -8.8157810945 8.82252136562 -90 -1.68991976445 0.903109533033 1.91610239787 151.880933289 -118.119066711 91.5912926792 -0.000321054061901 -0.00150442607303 0.00153830343527 -102.046812542 3002.19511127
0.8254461871 0.041324535852 8.1529720752 -1.6876709805 -7.97637843881 0 -8.881551951 0 -8.87485537716 8.881551951 -90 -1.6876709805 0.905173512193 1.91509407863 151.794764215 -118.205235785 89.6337632044 -0.000306205262616 -0.00144708878646 0.00147913188989 -101.947791025 2978.23854613
0.82597053711 0.041709352466 8.20521596683 -1.68510602946 -8.03031017471 0 -8.93730613129 0 -8.93062716401 8.93730613129 -90 -1.68510602946 0.90699595658 1.91369721212 151.710385038 -118.289614962 87.7493815957 -0.000291786116008 -0.00139038071293 0.00142066914377 -101.852293254 2953.08851603
0.82650020547 0.042081815412 8.25449184066 -1.68225201009 -8.08124746847 0 -8.98983305615 0 -8.9831517695 8.98983305615 -90 -1.68225201009 0.908585587678 1.9119395174 151.627904012 -118.372095988 85.9360123497 -0.000278011334288 -0.00133540767261 0.00136404060291 -101.760274832 2926.87826898
0.8270350929 0.042442313086 8.30089257136 -1.67913555408 -8.1292816629 0 -9.03923545667 0 -9.03253951365 9.03923545667 -90 -1.67913555408 0.909953793767 1.90984955424 151.547359776 -118.452640224 84.1904406301 -0.000264984597413 -0.00128277748402 0.0013098616039 -101.67162756 2899.72963136
0.82757509604 0.042791356279 8.34453671072 -1.67578164376 -8.17453056819 0 -9.08564356037 0 -9.07892565661 9.08564356037 -90 -1.67578164376 0.911112992183 1.90745492029 151.468747257 -118.531252743 82.5089914912 -0.000252723348259 -0.00123269443875 0.00125833497729 -101.586209083 2871.7535554
0.82812011581 0.043129484472 8.36593785503 -1.67402626891 -8.19673658062 0 -9.10838439346 0 -9.12245007903 9.10838439346 -90 -1.67402626891 0.911647812841 1.90616823995 151.429448601 -118.570551399 81.6738501307 -0.00024671136037 -0.00120800325672 0.00123293945637 -101.543780735 2857.39501492
0.8262909963 0.037835105495 7.33609258618 -1.62603874514 -7.15361813576 0 -7.99507412897 0 -8.09938885755 7.99507412897 -90 -1.62603874514 0.841455993207 1.83086050512 152.638964849 -117.361035151 107.464391667 -0.000371292496496 -0.00163346952497 0.00167513605625 -102.805914464 2891.77298662
0.82678238855 0.038286399708 7.47158607953 -1.6415482927 -7.28901768394 0 -8.14283674052 0 -8.1727907939 8.14283674052 -90 -1.6415482927 0.853819056571 1.85032440925 152.521149032 -117.478850968 105.038580372 -0.000369351785845 -0.00163996775435 0.00168104790617 -102.693390919 2930.89082762
0.82728017756 0.038732784575 7.57126564817 -1.64914244837 -7.3894714444 0 -8.25096495877 0 -8.24440550659 8.25096495877 -90 -1.64914244837 0.861493514369 1.86060533133 152.419215566 -117.580784434 102.715000432 -0.000362554077275 -0.00162445873901 0.00166442683836 -102.581978413 2943.41172897
0.82778420507 0.039172624507 7.63598666213 -1.64880720738 -7.45584487081 0 -8.32038083589 0 -8.31390394493 8.32038083589 -90 -1.64880720738 0.864535965076 1.86171914943 152.331448707 -117.668551293 100.485021809 -0.000350349321784 -0.0015841841278 0.00162246377664 -102.471030714 2928.92552476
0.82829430668 0.039604171815 7.69844755676 -1.64807443141 -7.51996287874 0 -8.38732252416 0 -8.38093889901 8.38732252416 -90 -1.64807443141 0.867359645426 1.86238364776 152.244047017 -117.755952983 98.3183144417 -0.000337282027529 -0.00153888524173 0.00157541464222 -102.362649911 2912.82256249
0.82881032286 0.040025838365 7.7583789721 -1.64695537064 -7.58154862675 0 -8.45150100336 0 -8.44520132566 8.45150100336 -90 -1.64695537064 0.869952376603 1.86260304009 152.157439374 -117.842560626 96.2199091867 -0.000323612766921 -0.00148961209029 0.00152435998491 -102.257194172 2895.18924645
0.82933210474 0.040436412942 7.81558068527 -1.6454668891 -7.64039520403 0 -8.51270227387 0 -8.50646453621 8.51270227387 -90 -1.6454668891 0.872307069848 1.86238879507 152.071998771 -117.928001229 94.1932248222 -0.000309690099836 -0.00143788285039 0.00147085642855 -102.154933978 2876.1335185
0.82985951573 0.040835165051 7.8699392218 -1.64363071029 -7.69638368402 0 -8.57080623987 0 -8.56460423285 8.57080623987 -90 -1.64363071029 0.874422555847 1.86175937557 151.988011425 -118.011988575 92.2396656896 -0.000295864836147 -0.00138530112441 0.00141654453911 -102.056028812 2855.77681854
0.83039243622 0.041221832726 7.92142497986 -1.64147177539 -7.74948038899 0 -8.62578345 0 -8.61959410979 8.62578345 -90 -1.64147177539 0.876303061006 1.86073856711 151.905669263 -118.094330737 90.3586826294 -0.000282420735313 -0.00133322558046 0.00136281136363 -101.960530151 2834.24399574
0.83093075237 0.041596517391 7.97007611983 -1.63901630026 -7.79972069889 0 -8.6776775539 0 -8.67148318153 8.6776775539 -90 -1.63901630026 0.877956855009 1.85935315126 151.825079653 -118.174920347 88.5481566541 -0.000269544545698 -0.00128260879206 0.00131062663175 -101.868400873 2811.6553637
0.8314743634 0.04195956046 8.01597453315 -1.63629018921 -7.84718472386 0 -8.7265792755 0 -8.72036895804 8.7265792755 -90 -1.63629018921 0.879394551637 1.8576307257 151.746288812 -118.253711188 86.8050010432 -0.000257327401556 -0.00123397883793 0.00126052508415 -101.779546232 2788.12271602
0.8320231642 0.042311412985 8.05922477296 -1.63331790142 -7.89197595172 0 -8.77260361188 0 -8.76637086138 8.77260361188 -90 -1.63331790142 0.880627660156 1.85559803434 151.669304334 -118.330695666 85.1257277751 -0.000245785870619 -0.00118751862672 0.00121268844643 -101.693840316 2763.74933628
0.83257705405 0.042652552166 8.0804469218 -1.63175383664 -7.91397148073 0 -8.79517224531 0 -8.80961247476 8.79517224531 -90 -1.63175383664 0.881200764582 1.8544933395 151.630809633 -118.369190367 84.2918671516 -0.000240117092032 -0.00116457071876 0.00118906787737 -101.65125934 2751.21335528
0.82949280703 0.036443153249 6.95490986493 -1.58139507268 -6.77273658527 0 -7.57951013082 0 -7.67131107923 7.57951013082 -90 -1.58139507268 0.806773545554 1.77530108143 152.970884049 -117.029115951 114.801336285 -0.000374748936509 -0.00160495999793 0.00164813026196 -103.142765976 2776.51458713
0.82997780679 0.036902978922 6.98923461766 -1.5822561346 -6.80777610638 0 -7.61642516136 0 -7.74652870872 7.61642516136 -90 -1.5822561346 0.808649054979 1.77692132938 152.929669757 -117.070330243 113.592820852 -0.000370170766557 -0.00159259249689 0.0016350474072 -103.084613619 2774.24656987
0.83046955126 0.037359485675 7.15251582058 -1.5982051844 -6.97166374848 0 -7.7939320838 0 -7.8203066941 7.7939320838 -90 -1.5982051844 0.822268335318 1.79733017889 152.775757734 -117.224242266 109.92233353 -0.000364397710637 -0.00158951570388 0.00163075213697 -102.913170687 2810.86237456
0.83096791144 0.037811924409 7.24912052124 -1.60598587131 -7.06897882229 0 -7.89871776768 0 -7.89249793361 7.89871776768 -90 -1.60598587131 0.82973894539 1.80766868747 152.677848775 -117.322151225 107.557126299 -0.000358672554056 -0.00157869713418 0.00161893033666 -102.800792249 2825.50945792
0.83147274378 0.038259128333 7.31462846901 -1.60647027004 -7.13603156337 0 -7.96905185099 0 -7.96287266333 7.96905185099 -90 -1.60647027004 0.833020287626 1.80960727971 152.592587263 -117.407412737 105.270146269 -0.000347946102758 -0.00154553687815 0.0015842207086 -102.688118131 2815.61704998
0.83198389179 0.038699623415 7.3781922193 -1.60654630466 -7.20115497981 0 -8.03725238502 0 -8.03114239122 8.03725238502 -90 -1.60654630466 0.836097405203 1.81109334226 152.507275728 -117.492724272 103.042810458 -0.000336414512797 -0.00150787081585 0.00154494444675 -102.57761052 2804.13160982
0.83250119305 0.039131836075 7.43954645107 -1.60622076661 -7.26407670681 0 -8.10303422924 0 -8.09700298897 8.10303422924 -90 -1.60622076661 0.838957522432 1.8121270003 152.422307449 -117.577692551 100.880084799 -0.000324159201785 -0.00146592330726 0.00150133748071 -102.469630559 2791.10500191
0.83302448971 0.039554336236 7.49845528748 -1.60550495925 -7.32455395082 0 -8.16614440474 0 -8.16018397417 8.16614440474 -90 -1.60550495925 0.841590453915 1.81271349879 152.338068897 -117.661931103 98.7862260683 -0.000311400844596 -0.00142057664272 0.00145430810079 -102.364502008 2776.61066214
0.83355363387 0.039966031358 7.55474356125 -1.60441534084 -7.38240529636 0 -8.22639581005 0 -8.22048709087 8.22639581005 -90 -1.60441534084 0.843990513689 1.8128646628 152.25489796 -117.74510204 96.7640731095 -0.000298436430544 -0.00137311392298 0.00140517236952 -102.262470161 2760.74204936
0.83408848889 0.040366258883 7.60831214859 -1.60297290164 -7.43752642608 0 -8.28368366565 0 -8.27780376452 8.28368366565 -90 -1.60297290164 0.846157239572 1.81259869776 152.173056877 -117.826943123 94.8146404777 -0.000285566047242 -0.00132489532539 0.0013553222924 -102.163680927 2743.60499245
0.83462893421 0.040754775565 7.65913531559 -1.60120169345 -7.48988759708 0 -8.33798251638 0 -8.33211127084 8.33798251638 -90 -1.60120169345 0.848094919302 1.81193868758 152.092725701 -117.907274299 92.9372041649 -0.000273033281506 -0.00127707699141 0.00130593853198 -102.068183541 2725.31025758
0.83517485426 0.041131662685 7.70724667145 -1.59912705405 -7.53951953914 0 -8.38933093418 0 -8.38345277855 8.38933093418 -90 -1.59912705405 0.849811395042 1.81091048623 152.014010598 -117.985989402 91.1297253839 -0.000260999548876 -0.00123047468446 0.00125785177311 -101.975947699 2705.96863545
0.83572614608 0.041497216575 7.75271802732 -1.59677412558 -7.58649206567 0 -8.43780862103 0 -8.43191400793 8.43780862103 -90 -1.59677412558 0.851316555367 1.80954071892 151.936964397 -118.063035603 89.3893161844 -0.000249544558554 -0.00118554506922 0.00121152454746 -101.886891401 2685.68479087
0.83628270209 0.04185183104 7.79564110563 -1.59416678241 -7.63089554917 0 -8.48351661113 0 -8.47759982733 8.48351661113 -90 -1.59416678241 0.852621061963 1.80785524924 151.86160602 -118.13839398 87.7126668923 -0.000238683819592 -0.00114245078548 0.00116711853772 -101.800904369 2664.55471427
0.83684441904 0.042195923636 7.81671662263 -1.59278556608 -7.65271456047 0 -8.50594561758 0 -8.52061886318 8.50594561758 -90 -1.59278556608 0.853231057111 1.8069250059 151.823914446 -118.176085554 86.8803184502 -0.000233340346591 -0.00112112556406 0.00114515124753 -101.758172991 2653.66021139
0.83348359721 0.035983868966 6.844752252 -1.56212606948 -6.66410966596 0 -7.45849610598 0 -7.41501056704 7.45849610598 -90 -1.56212606948 0.794386440022 1.75251054712 153.046364346 -116.953635654 116.047682195 -0.000366944429352 -0.00156546145735 0.0016078929934 -103.193293942 2718.20872691
0.83397444236 0.036445805093 6.87888027016 -1.56309037557 -6.69892939201 0 -7.49520562891 0 -7.48927264323 7.49520562891 -90 -1.56309037557 0.796276236894 1.75422762544 153.005664473 -116.994335527 114.837507618 -0.000362431246844 -0.00155323519257 0.00159496102199 -103.13521264 2716.52401662
0.83447209703 0.036903919608 6.94657417018 -1.5648109156 -6.7680256737 0 -7.56799924053 0 -7.56202178662 7.56799924053 -90 -1.5648109156 0.799973566833 1.75744084359 152.923719085 -117.076280915 112.438482158 -0.000353228544936 -0.00152772708587 0.00156803218567 -103.019516715 2712.36398852
0.83497643315 0.037357534772 7.01274356634 -1.56610810756 -6.83562646745 0 -7.6391114356 0 -7.63312907084 7.6391114356 -90 -1.56610810756 0.80348496815 1.76019610292 152.841168234 -117.158831766 110.094559022 -0.00034360591759 -0.00149970490077 0.00153856559009 -102.905411594 2706.64124856
0.83548730955 0.037805603082 7.07720470748 -1.5669870653 -6.90154252534 0 -7.70834463672 0 -7.70239399946 7.70834463672 -90 -1.5669870653 0.806802111372 1.76249423734 152.758266872 -117.241733128 107.808480523 -0.000333386931899 -0.0014683038452 0.00150567826719 -102.793157458 2699.37134154
0.83600457319 0.038246805139 7.13973467408 -1.56745295486 -6.96554475659 0 -7.77545915688 0 -7.76956528353 7.77545915688 -90 -1.56745295486 0.809914400285 1.76433503624 152.675334267 -117.324665733 105.584065577 -0.000322502521483 -0.00143310465655 0.00146894539881 -102.683066758 2690.58085347
0.83652806542 0.038679733893 7.20010238181 -1.56751325232 -7.0273955537 0 -7.84020677244 0 -7.83437828166 7.84020677244 -90 -1.56751325232 0.812811218738 1.76572026858 152.592723212 -117.407276788 103.425514745 -0.000311019383469 -0.00139428795048 0.00142855711 -102.575463625 2680.31591559
0.83705763172 0.039103110331 7.25810259973 -1.56717946045 -7.0868832665 0 -7.90236749445 0 -7.89659782027 7.90236749445 -90 -1.56717946045 0.815484227944 1.76665625868 152.51078085 -117.48921915 101.336407425 -0.000299122721916 -0.00135258873586 0.00138527032515 -102.470638904 2668.64116233
0.83759312636 0.039515955254 7.31358306395 -1.56646776041 -7.14384977487 0 -7.96177881136 0 -7.9560516489 7.96177881136 -90 -1.56646776041 0.817929036485 1.76715523898 152.429812419 -117.570187581 99.3189939698 -0.000287063007558 -0.00130908073209 0.00134018671503 -102.368813718 2655.63742187
0.83813441337 0.039917670884 7.3664577386 -1.56539850252 -7.19820408426 0 -8.0183499133 0 -8.01264553221 8.0183499133 -90 -1.56539850252 0.820145829043 1.76723520125 152.350057723 -117.649942277 97.3739758859 -0.000275094633126 -0.00126490771818 0.00129447719871 -102.270120866 2641.399131
0.83868137148 0.0403080317 7.41670437659 -1.56399489866 -7.24992000502 0 -8.07205894545 0 -8.0663599532 8.07205894545 -90 -1.56399489866 0.822138940433 1.76691855687 152.2716855 -117.7283145 95.5004861493 -0.000263424726023 -0.00122104461346 0.0012491376649 -102.174607291 2626.02528292
0.83923388318 0.040687099568 7.46435237132 -1.56228141491 -7.2990239701 0 -8.12293977709 0 -8.11723265326 8.12293977709 -90 -1.56228141491 0.823915806996 1.7662302428 152.194800429 -117.805199571 93.6964678755 -0.00025219126307 -0.00117818277414 0.00120487228448 -102.082249059 2609.61545652
0.83979184294 0.041055127612 7.50946426477 -1.56028240355 -7.34557633693 0 -8.17106197362 0 -8.16533848641 8.17106197362 -90 -1.56028240355 0.82548563669 1.76519590554 152.119461045 -117.880538955 91.9592298288 -0.000241463400544 -0.00113671419238 0.00116207816368 -101.992976223 2592.26791741
0.84035514014 0.041412454833 7.5521200002 -1.55802110272 -7.38965544954 0 -8.21651374804 0 -8.21076893406 8.21651374804 -90 -1.55802110272 0.826858298495 1.76384050768 152.045696334 -117.954303666 90.2857206821 -0.000231255707879 -0.00109678351705 0.00112089920437 -101.906693336 2574.07412388
0.84092366846 0.041759441734 7.5730778458 -1.55681314183 -7.41132868906 0 -8.23883212207 0 -8.25361887534 8.23883212207 -90 -1.55681314183 0.827503433011 1.76307595474 152.00879143 -117.99120857 89.4551590143 -0.000226225070119 -0.00107698691144 0.00110049061886 -101.863803095 2564.66654938
0.83729754507 0.035544953236 6.62850343058 -1.52426227395 -6.45086414246 0 -7.22096768383 0 -7.17798061102 7.22096768383 -90 -1.52426227395 0.770103541365 1.70775868144 153.19663252 -116.80336748 118.588836198 -0.00035080671324 -0.00148472353655 0.00152560516935 -103.295260809 2604.98674101
0.83779330427 0.036008984478 6.66218859521 -1.5254198396 -6.48519630122 0 -7.25721102995 0 -7.25138988665 7.25721102995 -90 -1.5254198396 0.772014728736 1.70965455087 153.157004298 -116.842995702 117.376177928 -0.000346430080571 -0.00147279625131 0.00151299264031 -103.237345208 2604.40496508
0.83829593019 0.036468713274 6.72900671825 -1.52752524039 -6.55332872123 0 -7.32908326182 0 -7.32321985131 7.32908326182 -90 -1.52752524039 0.775754540592 1.7132235437 153.077203988 -116.922796012 114.972566804 -0.00033753153302 -0.00144804150166 0.00148686101099 -103.121949419 2602.48686165
0.83880529619 0.036923530225 6.79425885467 -1.52919999775 -6.61992595087 0 -7.39922996477 0 -7.39335828836 7.39922996477 -90 -1.52919999775 0.779304013899 1.71632572919 152.996870168 -117.003129832 112.627287184 -0.000328301109072 -0.00142119383799 0.00145862170619 -103.008198774 2599.06908598
0.8393212643 0.037372501858 6.8577855507 -1.53045051746 -6.68482329834 0 -7.46747982526 0 -7.461631571 7.46747982526 -90 -1.53045051746 0.782656526926 1.71896388395 152.916233658 -117.083766342 110.342541844 -0.000318590251022 -0.00139153339867 0.00142753930595 -102.896326638 2594.17004887
0.83984368594 0.037814456443 6.91939384516 -1.5312831129 -6.74782201752 0 -7.53362550263 0 -7.52782253657 7.53362550263 -90 -1.5312831129 0.785803485116 1.72113975787 152.835580784 -117.164419216 108.121462737 -0.000308339290977 -0.0013587061062 0.00139325471187 -102.786611917 2587.81571932
0.84037240736 0.038248145839 6.97888401704 -1.53170605844 -6.8087163157 0 -7.59745259434 0 -7.59170273461 7.59745259434 -90 -1.53170605844 0.788736278632 1.72285678387 152.755226909 -117.244773091 105.967400733 -0.000297601757614 -0.00132285375203 0.00135591736576 -102.679343485 2580.04530757
0.84090727836 0.038672435097 7.03607888166 -1.53173117903 -6.86732302582 0 -7.65877130592 0 -7.65306932951 7.65877130592 -90 -1.53173117903 0.791448280109 1.72412240106 152.67548277 -117.32451723 103.883295464 -0.000286531202801 -0.00128458151306 0.00131615067264 -102.574780758 2570.91701498
0.84144815615 0.039086453005 7.09084710673 -1.53137449008 -6.92350530809 0 -7.71744160151 0 -7.71177385576 7.71744160151 -90 -1.53137449008 0.793936293412 1.72494929119 152.596623297 -117.403376703 101.870923179 -0.000275336464298 -0.0012447780679 0.00127486672297 -102.473121719 2560.50330284
0.84199490589 0.039489663406 7.14311458544 -1.53065578513 -6.97718431023 0 -7.77338540526 0 -7.76773515629 7.77338540526 -90 -1.53065578513 0.796201095034 1.72535527135 152.518867337 -117.481132663 99.9306262641 -0.000264230441238 -0.00120439334738 0.00123303827248 -102.374486536 2548.88743373
0.8425474057 0.039881857512 7.19286220519 -1.52959748327 -7.02833704275 0 -7.82658409707 0 -7.82093658791 7.82658409707 -90 -1.52959748327 0.798247054318 1.72536210927 152.442372875 -117.557627125 98.0614601395 -0.000253387333927 -0.00116424089172 0.0011914965783 -102.278919829 2536.15985581