TITLE = "Electromagnetic Field"
VARIABLES = X Y E ER EI EvR EvI EvR' EvI' Ev EvPhase EpR EpI Ep EpPhase EpToEvPhaseShift elConductivity Jr Ji J Jphase QJ
ZONE N=292, E=257, F=FEPOINT, ET=QUADRILATERAL
0.87291487406 0.02085199067 3.20094021674 -0.871573920841 -3.0799962941 0 -3.4784680384 0 -3.51652054834 3.4784680384 -90 -0.871573920841 0.398471744305 0.958342752099 155.430765077 -114.569234923 200.73485613 -8.63560860037e-05 -0.000305167947897 0.000317151146953 -105.800393032 1028.36650178
0.87365624828 0.020151400773 3.15173158078 -0.857552200932 -3.03282304853 0 -3.42487839334 0 -3.38619220079 3.42487839334 -90 -0.857552200932 0.392055344815 0.942922674856 155.431095586 -114.568904414 191.598542834 -7.47900776e-05 -0.000264466759074 0.000274838545675 -105.788394638 953.648699228
0.87427406013 0.019567575857 3.05003143169 -0.828285802963 -2.93541026687 0 -3.31412707625 0 -3.27826527327 3.31412707625 -90 -0.828285802963 0.378716809378 0.910760009877 155.428666346 -114.571333654 170.077828772 -5.2009550052e-05 -0.00018428285105 0.000191481502766 -105.757224429 792.832524047
0.87478890334 0.019081055093 2.96575268969 -0.803514119037 -2.85482977625 0 -3.22235352033 0 -3.18879636481 3.22235352033 -90 -0.803514119037 0.367523744079 0.88357718822 155.420789228 -114.579210772 147.496608762 -3.56103872908e-05 -0.000126492797921 0.00013140977697 -105.719422252 650.004481933
0.87521793935 0.018675621121 2.89584797476 -0.782675638869 -2.78807342182 0 -3.14623602481 0 -3.11456428766 3.14623602481 -90 -0.782675638869 0.358162602991 0.860733183133 155.410483315 -114.589516685 126.025550447 -2.42001363934e-05 -8.61871212413e-05 8.9520206084e-05 -105.680433021 529.4030858
0.87557546936 0.018337759477 2.83782176281 -0.765220207543 -2.73270372146 0 -3.08305511477 0 -3.05292947795 3.08305511477 -90 -0.765220207543 0.35035139331 0.841610403407 155.3995593 -114.6004407 106.453917327 -1.6369336329e-05 -5.84446451291e-05 6.06937561854e-05 -105.643313251 429.359383502
0.87587341104 0.018056208107 2.78962490085 -0.750639901101 -2.68673523831 0 -3.03057824214 0 -3.00172317041 3.03057824214 -90 -0.750639901101 0.343843003837 0.825644159223 155.389026477 -114.610973523 88.7483112312 -1.09971132209e-05 -3.93537607689e-05 4.08614133648e-05 -105.609570625 345.843147099
0.87612169577 0.017821581965 2.7495709068 -0.738483535285 -2.64854333687 0 -2.98696831106 0 -2.95915937749 2.98696831106 -90 -0.738483535285 0.338424974196 0.812335767471 155.379393038 -114.620606962 72.4344566676 -7.27490922971e-06 -2.60863991221e-05 2.70818123844e-05 -105.579778887 274.204008538
0.87632859971 0.017626060179 2.71626907952 -0.728360117752 -2.61679363733 0 -2.95071062231 0 -2.92376450916 2.95071062231 -90 -0.728360117752 0.333916984984 0.801254651782 155.37086828 -114.62913172 56.9807218269 -4.66419480025e-06 -1.67542026471e-05 1.73913205659e-05 -105.553983595 210.516592836
0.87650101966 0.017463125357 2.68857072473 -0.719935992468 -2.59038693812 0 -2.92055418399 0 -2.8943207648 2.92055418399 -90 -0.719935992468 0.330167245877 0.792034245257 155.363490049 -114.636509951 41.86968385 -2.81008052671e-06 -1.01090865963e-05 1.0492387112e-05 -105.531951063 151.579033747
0.87664470295 0.017327346339 2.67492295005 -0.715785284755 -2.57737545088 0 -2.90569534683 0 -2.86982036424 2.90569534683 -90 -0.715785284755 0.328319895952 0.787491287539 155.359791426 -114.640208574 33.6209268925 -1.97672647017e-06 -7.11772983579e-06 7.38711889394e-06 -105.520966968 120.282443035
0.87324586233 0.021215862557 3.22562181553 -0.876267572459 -3.10431745659 0 -3.50517576227 0 -3.57172206292 3.50517576227 -90 -0.876267572459 0.400858305686 0.963603801966 155.417820221 -114.582179779 199.695020226 -8.63787766988e-05 -0.000306006713668 0.000317964533101 -105.763268311 1038.85505321
0.87397627676 0.020504406727 3.17610663388 -0.862230094027 -3.05682974307 0 -3.45125517996 0 -3.43978523757 3.45125517996 -90 -0.862230094027 0.394425436884 0.948162541068 155.418451373 -114.581548627 190.618927804 -7.48187774588e-05 -0.000265214830847 0.000275566308032 -105.752058569 963.479497084
0.87458495546 0.019911526866 3.07377213338 -0.832926967116 -2.95876721998 0 -3.33981896002 0 -3.33051439812 3.33981896002 -90 -0.832926967116 0.381051740043 0.915951854802 155.416629996 -114.583370004 169.237591699 -5.2047123307e-05 -0.000184846994678 0.000192034713718 -105.722530736 801.226130816
0.87509218771 0.019417460314 2.98896390367 -0.808116299483 -2.87764648047 0 -3.24747356118 0 -3.23992321645 3.24747356118 -90 -0.808116299483 0.369827080714 0.88872046249 155.409232095 -114.590767905 146.792149755 -3.56471465286e-05 -0.000126908052741 0.000131819500033 -105.686110648 657.052849253
0.87551488125 0.019005738186 2.918617372 -0.787239776684 -2.81044076952 0 -3.17087881005 0 -3.16475433567 3.17087881005 -90 -0.787239776684 0.360438040529 0.865830284714 155.399309256 -114.600690744 125.436899592 -2.42306157009e-05 -8.64833050122e-05 8.98136299662e-05 -105.648277472 535.240524564
0.87586712587 0.018662636412 2.8602225932 -0.769748978931 -2.75469719403 0 -3.10729970906 0 -3.10233779235 3.10729970906 -90 -0.769748978931 0.352602515027 0.846665256166 155.38869486 -114.61130514 105.956383299 -1.63916859102e-05 -5.86480891564e-05 6.08957071013e-05 -105.612120846 434.120083377
0.87616066305 0.018376718267 2.81171833348 -0.755136793919 -2.70841754854 0 -3.05449069121 0 -3.050479319 3.05449069121 -90 -0.755136793919 0.34607314267 0.830661318679 155.378414481 -114.621585519 88.3138659964 -1.10107178522e-05 -3.94836665891e-05 4.09901990896e-05 -105.579178784 349.617724622
0.87640527737 0.018138453145 2.77140800194 -0.742952294269 -2.66996661295 0 -3.01060375859 0 -3.00737156356 3.01060375859 -90 -0.742952294269 0.340637145638 0.817319889958 155.368988365 -114.631011635 72.0405064607 -7.28055388191e-06 -2.61593231889e-05 2.71535797049e-05 -105.550051823 277.055771718
0.87660912264 0.017939898876 2.73789244408 -0.73280441759 -2.6380012273 0 -2.97411509056 0 -2.9715230581 2.97411509056 -90 -0.73280441759 0.336113863255 0.80621018796 155.360634886 -114.639365114 56.6091003418 -4.66313186874e-06 -1.67835654233e-05 1.74193271154e-05 -105.524808451 212.479242326
0.87677899369 0.017774436985 2.71001590284 -0.724359260421 -2.61141490335 0 -2.94376607167 0 -2.94170105366 2.94376607167 -90 -0.724359260421 0.33235116832 0.796965280951 155.353398832 -114.646601168 41.504977026 -2.80356963739e-06 -1.01053074641e-05 1.04870049184e-05 -105.503234257 152.655516218
0.8769205529 0.017636552076 2.69628024955 -0.720198027695 -2.59831487473 0 -2.92881225344 0 -2.91688527897 2.92881225344 -90 -0.720198027695 0.330497378705 0.792410080468 155.349770283 -114.650229717 33.2557014671 -1.96759053163e-06 -7.09848295127e-06 7.36613101437e-06 -105.49247582 120.869822733
0.87358705699 0.021570243029 3.27438971048 -0.885440627819 -3.15239883332 0 -3.55793946687 0 -3.62494907223 3.55793946687 -90 -0.885440627819 0.40554063355 0.973893402875 155.391815652 -114.608184348 197.614255753 -8.63718865619e-05 -0.000307502251998 0.000319402223336 -105.689175747 1059.34847578
0.87430669544 0.020847763235 3.22426915034 -0.87137467895 -3.10428948418 0 -3.50336554904 0 -3.49139942563 3.50336554904 -90 -0.87137467895 0.399076064863 0.958413054402 155.39304745 -114.60695255 188.654945623 -7.48289623519e-05 -0.00026654671109 0.000276851144469 -105.679523454 982.677118125
0.87490639415 0.020245696738 3.1206800527 -0.842003968781 -3.00494076498 0 -3.39057516914 0 -3.38078096306 3.39057516914 -90 -0.842003968781 0.385634404167 0.926112637447 155.39244027 -114.60755973 167.54472264 -5.20854186829e-05 -0.000185847225288 0.000193008026689 -105.653239321 817.593687177
0.87540614308 0.019743974655 3.03482442688 -0.817120354723 -2.92275035553 0 -3.29709892221 0 -3.28906435182 3.29709892221 -90 -0.817120354723 0.374348566681 0.898789497864 155.385999105 -114.614000895 145.364896389 -3.56927090489e-05 -0.00012764135057 0.000132537886589 -105.619550171 670.775321982
0.87582260052 0.019325872918 2.96360379315 -0.79617200754 -2.85465479319 0 -3.21956022175 0 -3.21295599313 3.21956022175 -90 -0.79617200754 0.364905428556 0.875811551038 155.376840851 -114.623159149 124.236530579 -2.42706087261e-05 -8.70025889871e-05 9.03245051632e-05 -105.584002323 546.580068392
0.87616964839 0.018977454803 2.90447974391 -0.778614073613 -2.79817074523 0 -3.15519344767 0 -3.1497554573 3.15519344767 -90 -0.778614073613 0.357022702442 0.856565886708 155.366844386 -114.633155614 104.934025346 -1.64206560945e-05 -5.89999235088e-05 6.1242389907e-05 -105.549750455 443.335345722
0.87645885494 0.018687106373 2.85536718698 -0.763941159046 -2.75127476772 0 -3.1017273335 0 -3.09724291465 3.1017273335 -90 -0.763941159046 0.350452565784 0.840489812499 155.357067876 -114.642932124 87.4131513028 -1.10259847497e-05 -3.97014158508e-05 4.12040695005e-05 -105.518392279 356.87743335
0.87669986041 0.018445149348 2.81454955737 -0.751702939971 -2.71231070622 0 -3.0572923491 0 -3.05358959625 3.0572923491 -90 -0.751702939971 0.344981642884 0.827085044434 155.348055678 -114.651944322 71.215227231 -7.28260154683e-06 -2.6272349756e-05 2.72630314242e-05 -105.490581205 282.474193335
0.8769006983 0.018243518493 2.78061099268 -0.741508294282 -2.6799180295 0 -3.02034665296 0 -3.01728611003 3.02034665296 -90 -0.741508294282 0.340428623456 0.815920475723 155.340044295 -114.659955705 55.8215128279 -4.6536899575e-06 -1.68160449883e-05 1.74481027306e-05 -105.466431013 216.112324961
0.8770680632 0.018075492781 2.75238177065 -0.733022891221 -2.65297582719 0 -2.98961656122 0 -2.98708471882 2.98961656122 -90 -0.733022891221 0.336640734034 0.806628517699 155.333092372 -114.666907628 40.7237604286 -2.7846895214e-06 -1.00764903638e-05 1.04541945632e-05 -105.445765371 154.502913951
0.87720753396 0.017935471353 2.73847213271 -0.728841500802 -2.63970032896 0 -2.97447474507 0 -2.96195262602 2.97447474507 -90 -0.728841500802 0.334774416108 0.802049788458 155.329603901 -114.670396099 32.4695206549 -1.94416769203e-06 -7.04115905041e-06 7.30463702272e-06 -105.435454455 121.731205567
0.87393057571 0.021922341473 3.322148638 -0.894236422549 -3.19953250356 0 -3.60959741832 0 -3.67755277324 3.60959741832 -90 -0.894236422549 0.410064914761 0.983774397405 155.365564272 -114.634435728 195.553761634 -8.63048733787e-05 -0.00030879043113 0.000320624552911 -105.615393249 1079.10595491
0.87463905054 0.021189218379 3.27144252221 -0.880149762379 -3.15082022148 0 -3.55439201558 0 -3.54247636066 3.55439201558 -90 -0.880149762379 0.403571794097 0.968263314318 155.367400863 -114.632599137 186.709595772 -7.47866038034e-05 -0.000267697820523 0.000277948181931 -105.607270311 1001.19873872
0.87522944623 0.020578282466 3.16663872238 -0.850727396827 -3.05022284877 0 -3.44029145976 0 -3.4305809005 3.44029145976 -90 -0.850727396827 0.390068610985 0.935890306638 155.368016404 -114.631983596 165.867329105 -5.20863201684e-05 -0.00018671959876 0.000193848418196 -105.5841733 833.415003394
0.87572144263 0.020069169203 3.07976849178 -0.825784301798 -2.96699347699 0 -3.34572050884 0 -3.33779696446 3.34572050884 -90 -0.825784301798 0.378727031844 0.908489909843 155.362538806 -114.637461194 143.951307412 -3.57124611424e-05 -0.000128286807987 0.000133164906486 -105.553171332 684.067379232
0.87613143964 0.019644908149 3.00770076817 -0.804775434429 -2.89803327023 0 -3.26726762803 0 -3.26079702986 3.26726762803 -90 -0.804775434429 0.369234357798 0.885436359595 155.354150532 -114.645849468 123.048779987 -2.42930631561e-05 -8.74623207445e-05 9.07734195173e-05 -105.519874732 557.582230898
0.87647310382 0.01929135727 2.94786974086 -0.787159811151 -2.84082950061 0 -3.20213774558 0 -3.19685206152 3.20213774558 -90 -0.787159811151 0.361308244969 0.866120227971 155.344776213 -114.655223787 103.923931307 -1.64378377695e-05 -5.93117084474e-05 6.15474016137e-05 -105.487500891 452.284904955
0.87675782396 0.018996731537 2.8981673133 -0.772434041948 -2.79333431291 0 -3.14803483889 0 -3.14371816833 3.14803483889 -90 -0.772434041948 0.354700525982 0.849980495334 155.335506846 -114.664493154 86.5256876564 -1.10334998564e-05 -3.98926886994e-05 4.13904011224e-05 -105.457705527 363.926562023
0.87699509075 0.018751210092 2.85685763618 -0.76014865989 -2.75387127771 0 -3.103068607 0 -3.09954638084 3.103068607 -90 -0.76014865989 0.349197329286 0.836519448298 155.326911101 -114.673088899 70.405796664 -7.27979114846e-06 -2.63685839151e-05 2.73550326079e-05 -105.431193665 287.727104791
0.87719281308 0.018546608887 2.82250870016 -0.749912700725 -2.72106302413 0 -3.06567980631 0 -3.06281037298 3.06567980631 -90 -0.749912700725 0.344616782178 0.825305889029 155.319243777 -114.680756223 55.0541643458 -4.64150656053e-06 -1.68388055565e-05 1.7466798331e-05 -105.408123411 219.619541872
0.87735758168 0.018376107883 2.79393727644 -0.741391589465 -2.69377465177 0 -3.03458018997 0 -3.03224822838 3.03458018997 -90 -0.741391589465 0.340805538199 0.815971768603 155.312577493 -114.687422507 39.968355515 -2.76459419584e-06 -1.00430457537e-05 1.0416610705e-05 -105.388355744 156.25885815
0.87749488885 0.018234023713 2.77956753394 -0.736525426484 -2.68020964185 0 -3.01889995797 0 -3.00681528883 3.01889995797 -90 -0.736525426484 0.338690316121 0.810666922048 155.304753042 -114.695246958 27.1947763449 -1.59624917294e-06 -5.80619058595e-06 6.02161695636e-06 -105.365818354 105.053364926
0.87760931149 0.018115620238 2.77886387257 -0.73491434436 -2.67992263484 0 -3.01803968696 0 -2.98564581343 3.01803968696 -90 -0.73491434436 0.338117052116 0.808963679331 155.293937265 -114.706062735 16.2805185073 -8.13588409847e-07 -2.96681376779e-06 3.07634686493e-06 -105.33521056 62.859769176
0.87344364599 0.023160676996 3.53109823474 -0.943419581638 -3.40273628663 0 -3.83655130435 0 -3.89384256 3.83655130435 -90 -0.943419581638 0.433815017717 1.03838142155 155.305489591 -114.694510409 205.540835237 -0.000118865059184 -0.000428723823388 0.000444896638597 -105.496205044 1281.40885512
0.87428030754 0.022268282211 3.43100861279 -0.918269380319 -3.3058428215 0 -3.72769810716 0 -3.72881539946 3.72769810716 -90 -0.918269380319 0.421855285667 1.01053483547 155.326221902 -114.673778098 198.120028563 -9.87168239411e-05 -0.000355460112164 0.00036891320673 -105.524447788 1168.30699943
0.87497752549 0.021524619888 3.31757673594 -0.888549956842 -3.19637136038 0 -3.60428047324 0 -3.5922515653 3.60428047324 -90 -0.888549956842 0.407909112859 0.977706971142 155.34154124 -114.65845876 184.779783024 -7.47148306858e-05 -0.000268746926614 0.000278939506768 -105.535363345 1018.979741
0.87555854046 0.020904901282 3.21159591091 -0.859090471091 -3.09456097313 0 -3.48891130578 0 -3.4791113337 3.48891130578 -90 -0.859090471091 0.394350332648 0.945277030565 155.343384953 -114.656615047 164.200260316 -5.20664112656e-05 -0.000187520771879 0.00019461491876 -105.515392556 848.618574302
0.8760427196 0.020388469109 3.12374201333 -0.834100250394 -3.01032174286 0 -3.39327977581 0 -3.38528654088 3.39327977581 -90 -0.834100250394 0.382958032949 0.917812683459 155.338875312 -114.661124688 142.544546045 -3.57179154192e-05 -0.000128883868682 0.000133741647457 -105.487030509 696.854751866
0.87644620222 0.019958108964 3.05085266153 -0.813041285614 -2.94052074487 0 -3.313940797 0 -3.30741682017 3.313940797 -90 -0.813041285614 0.373420052125 0.89469475473 155.331260517 -114.668739483 121.86565344 -2.43058179313e-05 -8.78894125137e-05 9.1188402696e-05 -105.455948399 568.173338033
0.87678243774 0.019599475508 2.99033565191 -0.79537671881 -2.88261686269 0 -3.24807096195 0 -3.24274539234 3.24807096195 -90 -0.79537671881 0.36545409926 0.87531757513 155.322511107 -114.677488893 102.917143104 -1.64484427148e-05 -5.96013430759e-05 6.18293839818e-05 -105.425423865 460.896579022
0.877062634 0.019300614294 2.9400606956 -0.780605406702 -2.83453862516 0 -3.19335038818 0 -3.18900499797 3.19335038818 -90 -0.780605406702 0.358811763026 0.859122059545 155.313751055 -114.686248945 85.6412072854 -1.10365601794e-05 -4.00687699457e-05 4.15609498829e-05 -105.39716872 370.692751777
0.87729613089 0.019051563282 2.8982733151 -0.76827895811 -2.79458996217 0 -3.14786872755 0 -3.14432702729 3.14786872755 -90 -0.76827895811 0.353278765387 0.845611300686 155.305573469 -114.694426531 69.5998275552 -7.27397835836e-06 -2.64542942056e-05 2.74361198744e-05 -105.371938117 292.738394406
0.87749071163 0.018844020772 2.8635258871 -0.758006758239 -2.761377173 0 -3.11004992185 0 -3.10716867501 3.11004992185 -90 -0.758006758239 0.34867274885 0.83435421578 155.298251543 -114.701748457 54.2914598616 -4.62733040591e-06 -1.68542358914e-05 1.74779158298e-05 -105.349933352 222.916574466
0.87765286225 0.018671068679 2.83462211048 -0.749454153186 -2.73375177918 0 -3.07859163991 0 -3.07625421508 3.07859163991 -90 -0.749454153186 0.344839860724 0.824982473458 155.291871956 -114.708128044 39.2188627557 -2.74318414924e-06 -1.00043730983e-05 1.03736478382e-05 -105.331051873 157.826731872
0.87778798776 0.018526941936 2.81057206286 -0.742337454606 -2.71076527401 0 -3.05241628655 0 -3.050527431 3.05241628655 -90 -0.742337454606 0.341651012533 0.817184393923 155.2864175 -114.7135825 24.1356761884 -1.39838191221e-06 -5.10527944717e-06 5.29333140886e-06 -105.315038225 95.5384494598
0.87790059236 0.018406836316 2.79872492494 -0.738832527393 -2.6994417599 0 -3.03952227414 0 -3.02911291333 3.03952227414 -90 -0.738832527393 0.340080514238 0.813343888406 155.283701943 -114.716298057 15.8903310494 -7.98247919574e-07 -2.91638746665e-06 3.02365966975e-06 -105.307087703 62.2148254227
0.87381341572 0.023512541144 3.55439586302 -0.947340906734 -3.42582391833 0 -3.86172903568 0 -3.94541598926 3.86172903568 -90 -0.947340906734 0.435905117354 1.04281740124 155.291226307 -114.708773693 204.465577868 -0.000118710694877 -0.000429281772899 0.000445393262359 -105.457935535 1291.54788418
0.87463648816 0.022607592375 3.4919854091 -0.930990905153 -3.36559247496 0 -3.79379214266 0 -3.77865580099 3.79379214266 -90 -0.930990905153 0.428199667698 1.02474344008 155.300689245 -114.699310755 198.676283251 -0.000104141345063 -0.000376491701408 0.000390629604586 -105.462876096 1213.33850928
0.87532238187 0.021853468399 3.36264556323 -0.896575565275 -3.24091544851 0 -3.65300264012 0 -3.64063922973 3.65300264012 -90 -0.896575565275 0.412087191608 0.986743964709 155.315495338 -114.684504662 182.86316087 -7.45914143555e-05 -0.000269611277821 0.000279739435009 -105.463854664 1035.98391572
0.87589395995 0.021225031749 3.2555247657 -0.867092471806 -3.13792733218 0 -3.53640572155 0 -3.52628262777 3.53640572155 -90 -0.867092471806 0.398478389369 0.954271672365 155.318569544 -114.681430456 162.539786957 -5.20081522485e-05 -0.000188185811771 0.000195240269302 -105.446943012 863.165381893
0.87637027503 0.020701334538 3.16671765759 -0.842066655833 -3.05270708722 0 -3.4397471914 0 -3.43144029733 3.4397471914 -90 -0.842066655833 0.387040104184 0.926755811895 155.315029699 -114.684970301 141.139536364 -3.56956703674e-05 -0.000129383097151 0.0001342168905 -105.421167917 709.096850523
0.87676720426 0.020264920195 3.09303176713 -0.820967348051 -2.98208895994 0 -3.35954977078 0 -3.35271998239 3.35954977078 -90 -0.820967348051 0.377460810832 0.903584023453 155.308189827 -114.691810173 120.680928897 -2.42988499028e-05 -8.82469770535e-05 9.15312305185e-05 -105.392258362 578.312526903
0.87709797862 0.019901241574 3.03184948257 -0.803262041431 -2.92350443349 0 -3.2929628051 0 -3.28733792201 3.2929628051 -90 -0.803262041431 0.369458371617 0.884154641389 155.300066456 -114.699933544 101.906483368 -1.64450900085e-05 -5.98417091044e-05 6.20602325654e-05 -105.36354982 469.130209997
0.87737362392 0.019598176057 2.98101911522 -0.788452061194 -2.87485920176 0 -3.23764342783 0 -3.23300410043 3.23764342783 -90 -0.788452061194 0.362784226074 0.867910755185 155.29181661 -114.70818339 84.7513792947 -1.10297662209e-05 -4.02098546692e-05 4.16951881518e-05 -105.336808353 377.136030887
0.87760332834 0.019345621458 2.93876819942 -0.776090296089 -2.83443817573 0 -3.19166195079 0 -3.18783076154 3.19166195079 -90 -0.776090296089 0.357223775062 0.854356484163 155.284057899 -114.715942101 68.7873229817 -7.26121559136e-06 -2.65150339107e-05 2.74913168466e-05 -105.312837844 297.466648445
0.87779474869 0.019135159292 2.90363401902 -0.76578666096 -2.8008318258 0 -3.15342607654 0 -3.15025902162 3.15342607654 -90 -0.76578666096 0.352594250736 0.843061054979 155.277081968 -114.722918032 53.5214396226 -4.60829785975e-06 -1.68518914581e-05 1.74706250836e-05 -105.291881698 225.960121944
0.87795426564 0.018959774153 2.87440762515 -0.757206576689 -2.77287850075 0 -3.12161985799 0 -3.11899967274 3.12161985799 -90 -0.757206576689 0.348741357239 0.833656019526 155.27098959 -114.72901041 38.4613184907 -2.71843176628e-06 -9.95311215322e-06 1.03176713041e-05 -105.273872968 159.161611161
0.87808719644 0.018813619871 2.85008850788 -0.750066170552 -2.74961873039 0 -3.09515429706 0 -3.09298520551 3.09515429706 -90 -0.750066170552 0.345535566671 0.825829347665 155.26577449 -114.73422551 23.3987157902 -1.37063051568e-06 -5.02342718149e-06 5.20705824121e-06 -105.258585966 95.2534075938
0.87819797211 0.018691824635 2.83810865302 -0.746549356861 -2.73816048894 0 -3.08211713599 0 -3.07133076195 3.08211713599 -90 -0.746549356861 0.343956647052 0.821974536762 155.26317708 -114.73682292 15.1805831108 -7.70408221588e-07 -2.82555304724e-06 2.92869952296e-06 -105.250993543 61.123918023
0.8741858472 0.023861542424 3.60038999126 -0.954980635844 -3.47142829113 0 -3.91142649519 0 -3.99624823062 3.91142649519 -90 -0.954980635844 0.43999820406 1.05146873639 155.262621847 -114.737378153 202.32574273 -0.000118405064916 -0.000430405780977 0.000446395545709 -105.381674632 1311.32003783
0.87499488666 0.022944517185 3.53734869622 -0.93864432922 -3.41053912842 0 -3.84281131477 0 -3.82786243461 3.84281131477 -90 -0.93864432922 0.432272186351 1.03339853179 155.272875982 -114.727124018 196.597238065 -0.000103887028281 -0.000377491658074 0.00039152590455 -105.388284461 1232.03011616
0.8756690862 0.022180329483 3.40669549034 -0.904245396925 -3.28449538352 0 -3.70060930131 0 -3.68848113014 3.70060930131 -90 -0.904245396925 0.416113917783 0.995394689385 155.28927516 -114.71072484 180.96689094 -7.44403833902e-05 -0.000270375159776 0.00028043560471 -105.392771756 1052.26519351
0.87623091916 0.021543506396 3.29847481243 -0.874752781961 -3.18036782211 0 -3.58282878141 0 -3.57298044898 3.58282878141 -90 -0.874752781961 0.402460959301 0.962895268301 155.293583733 -114.706416267 160.89606521 -5.19307650459e-05 -0.000188782356667 0.000195794783546 -105.378857742 877.118705321
0.8766991133 0.021012820487 3.20874744926 -0.849703397672 -3.09419786753 0 -3.48517953852 0 -3.47718010198 3.48517953852 -90 -0.849703397672 0.390981670987 0.935340885172 155.291017099 -114.708982901 139.748979729 -3.56606565665e-05 -0.000129837212819 0.000134645427226 -105.35562189 720.863544774
0.87708927508 0.020570582229 3.13429216791 -0.828573923848 -3.02278829802 0 -3.40415356728 0 -3.39765829421 3.40415356728 -90 -0.828573923848 0.381365269259 0.912126226786 155.284955004 -114.715044996 119.50936929 -2.42835457318e-05 -8.85753547429e-05 9.18438190162e-05 -105.328847715 588.073928855
0.87741440989 0.020202050346 3.07246701204 -0.810836435997 -2.96354426372 0 -3.33687413844 0 -3.33160617372 3.33687413844 -90 -0.810836435997 0.373329874714 0.892653883773 155.277459973 -114.722540027 100.908912393 -1.64364561706e-05 -6.00636452144e-05 6.22719830881e-05 -105.301926028 477.065048695
0.87768535558 0.019894940443 3.0210997499 -0.795994954558 -2.91434946958 0 -3.28097634522 0 -3.27671249556 3.28097634522 -90 -0.795994954558 0.366626875648 0.876369366055 155.269722137 -114.730277863 83.8760866637 -1.10198164951e-05 -4.03398256957e-05 4.18179201383e-05 -105.276675235 383.344049376
0.87791114365 0.019639015523 2.9784006228 -0.783603856054 -2.87347048534 0 -3.23451192459 0 -3.23107159854 3.23451192459 -90 -0.783603856054 0.361041439254 0.862778044264 155.262383686 -114.737616314 67.9923665869 -7.24680584122e-06 -2.65697683467e-05 2.75403160639e-05 -105.253946469 302.013094026
0.87809930037 0.019425744756 2.94289238667 -0.77327376844 -2.83948249801 0 -3.1958729615 0 -3.19310953133 3.1958729615 -90 -0.77327376844 0.356390463488 0.851449652549 155.255754784 -114.744245216 52.7739087331 -4.58873460554e-06 -1.6847289297e-05 1.74610345249e-05 -105.234024118 228.870812367
0.87825609764 0.019248019116 2.9133539053 -0.764670346143 -2.81121112464 0 -3.16373039943 0 -3.16152443028 3.16373039943 -90 -0.764670346143 0.35251927479 0.84201579735 155.249950362 -114.750049638 37.7318361856 -2.69390637407e-06 -9.90210027891e-06 1.02620051273e-05 -105.216875988 160.405249662
0.87838676203 0.019099914416 2.88877445856 -0.757509668662 -2.78768629074 0 -3.13698425269 0 -3.13523817242 3.13698425269 -90 -0.757509668662 0.349297961957 0.834164245539 155.244975131 -114.755024869 22.6937645202 -1.3435129315e-06 -4.94316330773e-06 5.1224893439e-06 -105.202305532 94.912021566
0.87849564903 0.018976493833 2.87666619875 -0.753982661027 -2.77609736843 0 -3.12380868937 0 -3.1133570085 3.12380868937 -90 -0.753982661027 0.34771132094 0.830296958009 155.242496091 -114.757503909 14.5044708474 -7.43359058313e-07 -2.73685361081e-06 2.83600992378e-06 -105.195066223 59.9968894418
0.87456719782 0.024200826401 3.64510300622 -0.962202850536 -3.51581226294 0 -3.95972259759 0 -4.04507449469 3.95972259759 -90 -0.962202850536 0.443910334646 1.05966541016 155.233911689 -114.766088311 200.205541712 -0.000118056786598 -0.0004313641438 0.00044722758827 -105.306071494 1330.00684968
0.87536237765 0.023271549355 3.58144803405 -0.945884901707 -3.45428228943 0 -3.89044810152 0 -3.87505938141 3.89044810152 -90 -0.945884901707 0.436165812085 1.04160404065 155.244951207 -114.755048793 194.529063888 -0.000103591254269 -0.000378332768043 0.000392258714592 -105.314296093 1249.64866456
0.8760250275 0.022497151814 3.44951743342 -0.911512541879 -3.32690710654 0 -3.74687332945 0 -3.73431011444 3.74687332945 -90 -0.911512541879 0.419966222916 1.00360689656 155.26293066 -114.73706934 179.062706196 -7.42518950971e-05 -0.000270999274838 0.000280987510447 -105.322179988 1067.52214292
0.87657723572 0.021851820526 3.34022631285 -0.88201950057 -3.22166870936 0 -3.62794175625 0 -3.61766256691 3.62794175625 -90 -0.88201950057 0.406273046894 0.971090229407 155.268462048 -114.731537952 159.228396961 -5.18217276231e-05 -0.000189262764838 0.00019622920259 -105.311172809 890.130695403
0.87703740923 0.021314044451 3.24960286419 -0.856954536337 -3.13457235277 0 -3.52932852178 0 -3.52090181444 3.52932852178 -90 -0.856954536337 0.39475616901 0.94350598905 155.266858902 -114.733141098 138.321823512 -3.55998977823e-05 -0.000130197729495 0.00013497706521 -105.290403056 731.779451256
0.87742088716 0.020865897721 3.17439808382 -0.835801828701 -3.06239039869 0 -3.44749598865 0 -3.44057647647 3.44749598865 -90 -0.835801828701 0.385105589961 0.920255970116 155.261566715 -114.738433285 118.291135778 -2.42475764895e-05 -8.88288491165e-05 9.20788377794e-05 -105.265705794 597.06560063
0.87774045211 0.020492442111 3.11194646055 -0.818038116508 -3.00250248882 0 -3.37954222641 0 -3.37385256533 3.37954222641 -90 -0.818038116508 0.37703973759 0.900747111727 155.254693824 -114.745306176 99.8559713184 -1.64111908388e-05 -6.02252423082e-05 6.24212166072e-05 -105.240524367 484.294190499
0.87800675623 0.020181229102 3.06005585508 -0.80317021374 -2.95277099089 0 -3.32308099104 0 -3.31839756681 3.32308099104 -90 -0.80317021374 0.370310000151 0.884427453909 155.247463225 -114.752536775 82.9361827659 -1.09961747457e-05 -4.04198485009e-05 4.18889073102e-05 -105.216727099 388.885522642
0.87822867633 0.019921884927 3.01691972807 -0.790754090763 -2.91144464984 0 -3.27614601176 0 -3.27228787597 3.27614601176 -90 -0.790754090763 0.364701361914 0.870803735478 155.240541448 -114.759458552 67.1212680525 -7.220723237e-06 -2.6581567234e-05 2.75448503631e-05 -105.19521042 305.905196728
0.87841360975 0.019705764781 2.9810467223 -0.780401194152 -2.87708378058 0 -3.23711421536 0 -3.23393444078 3.23711421536 -90 -0.780401194152 0.360030434779 0.85944631359 155.234256971 -114.765743029 51.9356907109 -4.55886996967e-06 -1.6804439301e-05 1.74118511062e-05 -105.176298198 231.114500328
0.87856772093 0.019525664659 2.95120385283 -0.771777511279 -2.84850159977 0 -3.20464381144 0 -3.2020227132 3.20464381144 -90 -0.771777511279 0.356142211664 0.84998695768 155.228738703 -114.771261297 36.8961224206 -2.66018429015e-06 -9.81661294703e-06 1.01706684751e-05 -105.159991852 160.956579889
0.87869614691 0.019375581224 2.92637046482 -0.764599162122 -2.82471769546 0 -3.17762413227 0 -3.17546393085 3.17762413227 -90 -0.764599162122 0.352906436803 0.842113327777 155.224002179 -114.775997821 21.8821006078 -1.30901037357e-06 -4.83492879004e-06 5.00899698815e-06 -105.146123085 93.9179905229
0.87880316857 0.019250511695 2.91406293384 -0.760496888868 -2.81307750776 0 -3.16419438325 0 -3.15335543123 3.16419438325 -90 -0.760496888868 0.351116875495 0.837638706984 155.217538776 -114.782461224 10.655764568 -5.42800676342e-07 -2.00655666387e-06 2.07867825922e-06 -105.128035397 45.2304942277
0.87889235328 0.019146287087 2.91388429753 -0.759129954574 -2.8132620588 0 -3.16390654728 0 -3.13494821286 3.16390654728 -90 -0.759129954574 0.350644488486 0.836199644366 155.207637888 -114.792362112 3.23390485513 -1.3831250325e-07 -5.1257273581e-07 5.30905978542e-07 -105.101017446 13.7290930636
0.87495190737 0.024536282239 3.68870368184 -0.969057506929 -3.5591370622 0 -4.00680125284 0 -4.09299053143 4.00680125284 -90 -0.969057506929 0.447664190644 1.06746229527 155.205081978 -114.794918022 198.11345799 -0.000117642527395 -0.000432069481961 0.000447798935438 -105.231116909 1347.78250396
0.87573287434 0.023595158366 3.62445943709 -0.95276501977 -3.49699002028 0 -3.93689428723 0 -3.92144026954 3.93689428723 -90 -0.95276501977 0.439904266942 1.04941749148 155.216906116 -114.783093884 192.486533257 -0.000103235967098 -0.000378946877659 0.000392757519992 -105.240915191 1266.40240715