TITLE = "Electromagnetic Field"
VARIABLES = X Y E ER EI EvR EvI EvR' EvI' Ev EvPhase EpR EpI Ep EpPhase EpToEvPhaseShift elConductivity Jr Ji J Jphase QJ
ZONE N=224, E=193, F=FEPOINT, ET=QUADRILATERAL
0 0.08 171.330336477 -37.3275771627 -167.214641047 0 -204.960587589 0 -204.957840225 204.960587589 -90 -37.3275771627 37.7459465422 53.085821998 134.680705655 -135.319294345 1.14536261425e-82 -4.27536113627e-91 -1.9152139841e-90 1.96235362088e-90 -102.583902646 1.68105353076e-78
0.00025958682112 0.08 171.768487539 -37.466384733 -167.632584322 0 -205.504332654 0 -205.574899666 205.504332654 -90 -37.466384733 37.8717483321 53.2728759003 134.691717881 -135.308282119 1.18520290462e-82 -2.29121429409e-90 -1.02513807001e-89 1.05043071737e-89 -102.598718301 1.74843581779e-78
0.0002079890176 0.08 171.727250207 -37.4533344392 -167.593246231 0 -205.453169488 0 -205.452061096 205.453169488 -90 -37.4533344392 37.8599232575 53.2552912938 134.690683572 -135.309316428 1.18487511016e-82 -2.11644472275e-90 -9.47039473176e-90 9.70400508575e-90 -102.597331416 1.74711346929e-78
0.000164990848 0.08 171.643426674 -37.4268014521 -167.513284366 0 -205.349164701 0 -205.349766299 205.349164701 -90 -37.4268014521 37.835880335 53.2195387845 134.688580269 -135.311419731 1.18409052991e-82 -1.76128672114e-90 -7.88301819535e-90 8.07738242337e-90 -102.594509282 1.74425250017e-78
0.00012915904 0.08 171.57362242 -37.40469559 -167.446697932 0 -205.262545152 0 -205.264569679 205.262545152 -90 -37.40469559 37.8158472206 53.1897504575 134.686827128 -135.313172872 1.18314624251e-82 -1.46570548404e-90 -6.56135859126e-90 6.72307363816e-90 -102.592153471 1.74144418127e-78
9.92992e-05 0.08 171.515485988 -37.3862775095 -167.391242843 0 -205.190397663 0 -205.193606535 205.190397663 -90 -37.3862775095 37.7991548197 53.1649306543 134.685365913 -135.314634087 1.18198839413e-82 -1.21963180387e-90 -5.4606759711e-90 5.59521972809e-90 -102.590187502 1.73856116798e-78
7.4416e-05 0.08 171.4670624 -37.3709315344 -167.345053585 0 -205.130299373 0 -205.134494206 205.130299373 -90 -37.3709315344 37.7852457874 53.1442501426 134.684148055 -135.315851945 1.18049051609e-82 -1.01466917507e-90 -4.54361000311e-90 4.65552847685e-90 -102.588547262 1.73537768911e-78
5.368e-05 0.08 171.426725677 -37.3581449136 -167.306578716 0 -205.080234552 0 -205.085250332 205.080234552 -90 -37.3581449136 37.7736558356 53.127018237 134.683133051 -135.316866949 1.17822710956e-82 -8.4368215119e-91 -3.77837087237e-90 3.87141912264e-90 -102.587179054 1.73123567256e-78
3.64e-05 0.08 171.393123034 -37.3474905745 -167.274527555 0 -205.03852573 0 -205.044225154 205.03852573 -90 -37.3474905745 37.7639981749 53.1126596067 134.682287132 -135.317712868 1.17414830856e-82 -7.00503343458e-91 -3.13745074347e-90 3.21470093519e-90 -102.586037952 1.72456642897e-78
2.2e-05 0.08 171.365128672 -37.3386127774 -167.247826051 0 -205.003776614 0 -205.01004541 205.003776614 -90 -37.3386127774 37.7559505625 53.1006949776 134.681582143 -135.318417857 1.16657241883e-82 -5.79949269686e-91 -2.59771126048e-90 2.66166206507e-90 -102.585086388 1.71287979746e-78
1e-05 0.08 171.341805483 -37.3312151794 -167.225580215 0 -204.974824735 0 -204.981567777 204.974824735 -90 -37.3312151794 37.7492445194 53.0907250715 134.680994613 -135.319005387 1.15393919799e-82 -4.78068822646e-91 -2.14150839901e-90 2.19422150714e-90 -102.584292969 1.69386958497e-78
0 0.07999 171.316667885 -37.3302393978 -167.200041557 0 -204.948416104 0 -204.939608514 204.948416104 -90 -37.3302393978 37.7483745463 53.0894203623 134.680906039 -135.319093961 1.1532260251e-82 -5.1338949472e-91 -2.29939698355e-90 2.35601257757e-90 -102.585835531 1.69232326395e-78
0 0.079976649736 171.288206289 -37.3357831133 -167.16964099 0 -204.923071728 0 -204.91526474 204.923071728 -90 -37.3357831133 37.7534307386 53.0969135945 134.681323061 -135.318676939 1.16376067805e-82 -6.90763178983e-91 -3.09278728221e-90 3.16898831755e-90 -102.589861269 1.70721545328e-78
0 0.079958854196 171.250288209 -37.3431693649 -167.129138197 0 -204.889306203 0 -204.882808113 204.889306203 -90 -37.3431693649 37.7601680068 53.1068977271 134.681878063 -135.318121937 1.17019986612e-82 -9.24542378429e-91 -4.13764311256e-90 4.23967795735e-90 -102.595227004 1.71590185469e-78
0 0.079935181834 171.199883873 -37.3529889618 -167.075295344 0 -204.844421179 0 -204.83962051 204.844421179 -90 -37.3529889618 37.7691258353 53.120171789 134.682614807 -135.317385193 1.17443999966e-82 -1.23215508617e-90 -5.51103100752e-90 5.64709386017e-90 -102.602363948 1.72110580778e-78
0 0.079903777667 171.133078916 -37.3660055813 -167.003928339 0 -204.784930248 0 -204.782305134 204.784930248 -90 -37.3660055813 37.7810019088 53.1377688521 134.683589479 -135.316410521 1.1774824354e-82 -1.63515970013e-90 -7.30776970588e-90 7.48847419458e-90 -102.611830684 1.72421801754e-78
0 0.07986226678 171.044881333 -37.3831937833 -166.909699613 0 -204.706386794 0 -204.7065057 204.706386794 -90 -37.3831937833 37.7966871806 53.1610077002 134.68487313 -135.31512687 1.17979439671e-82 -2.15932818764e-90 -9.6403096285e-90 9.87918363558e-90 -102.62434212 1.72582326905e-78
0 0.079807658136 170.929036166 -37.4057757816 -166.785918484 0 -204.60321855 0 -204.606723003 204.60321855 -90 -37.4057757816 37.817300066 53.1915430012 134.686553742 -135.313446258 1.18159156088e-82 -2.83420963777e-90 -1.26360268361e-89 1.29499777024e-89 -102.640798425 1.7261117663e-78
0 0.079736268909 170.777893143 -37.4352482766 -166.62439712 0 -204.468609075 0 -204.476164219 204.468609075 -90 -37.4352482766 37.8442119543 53.2314023226 134.688737145 -135.311262855 1.18302061033e-82 -3.69147590601e-90 -1.64287525638e-89 1.6838376311e-89 -102.662308024 1.72514455529e-78
0 0.079643705157 170.582403723 -37.4733845743 -166.415443413 0 -204.294494127 0 -204.306688465 204.294494127 -90 -37.4733845743 37.8790507142 53.2829901237 134.691545531 -135.308454469 1.18417414998e-82 -4.76111374383e-90 -2.11403934398e-89 2.1669897814e-89 -102.690194402 1.72287580543e-78
0 0.079524954772 170.332361632 -37.5221898097 -166.148112401 0 -204.071774466 0 -204.088949507 204.071774466 -90 -37.5221898097 37.9236620642 53.3490288177 134.695111809 -135.304888191 1.1851161528e-82 -6.0647140756e-90 -2.68495765191e-89 2.75259986595e-89 -102.725970886 1.71919558667e-78
0 0.079374668832 170.017032108 -37.5837807931 -165.81087169 0 -203.790874455 0 -203.812875614 203.790874455 -90 -37.5837807931 37.9800027654 53.4323983546 134.699567766 -135.300432234 1.18589124896e-82 -7.60526201826e-90 -3.35453981088e-89 3.4396714382e-89 -102.771262381 1.71395697617e-78
0 0.079187714856 169.626313249 -37.6601618919 -165.392835382 0 -203.442774477 0 -203.468645537 203.442774477 -90 -37.6601618919 38.0499390953 53.5358353494 134.705024451 -135.294975549 1.18653248775e-82 -9.3539620205e-90 -4.10700485113e-89 4.2121799474e-89 -102.827651535 1.70701171467e-78
0 0.078960057578 169.152495569 -37.7528827278 -164.885640276 0 -203.020576754 0 -203.048277982 203.020576754 -90 -37.7528827278 38.1349364781 53.6614717028 134.711544981 -135.288455019 1.1870650117e-82 -1.12367668275e-89 -4.90640790105e-89 5.0334380278e-89 -102.896434944 1.69825171135e-78
0 0.078689931403 168.592495271 -37.8625999764 -164.285836339 0 -202.521494973 0 -202.547795838 202.521494973 -90 -37.8625999764 38.2356586334 53.8102414278 134.71911349 -135.28088651 1.18750879767e-82 -1.31261932045e-89 -5.69405404244e-89 5.84339293588e-89 -102.978299015 1.68765799475e-78
0 0.078379102643 167.95013994 -37.9886235022 -163.597346925 0 -201.948893985 0 -201.969627283 201.948893985 -90 -37.9886235022 38.3515470599 53.9812624465 134.727608544 -135.272391456 1.18788013972e-82 -1.48460663347e-89 -6.39208678075e-89 6.56223008513e-89 -103.072966331 1.67534755613e-78
0 0.078033822604 167.23778834 -38.1285866454 -162.833233778 0 -201.313740719 0 -201.324529457 201.313740719 -90 -38.1285866454 38.4805069404 54.1713813218 134.736792586 -135.263207414 1.18819270539e-82 -1.61953197707e-89 -6.91542103405e-89 7.10253334536e-89 -103.178910562 1.6616045037e-78
0 0.077664969066 166.476471873 -38.2784021711 -162.015893562 0 -200.634741774 0 -200.632085709 200.634741774 -90 -38.2784021711 38.6188482126 54.3751002878 134.746327481 -135.253672519 1.18845801978e-82 -1.69898532774e-89 -7.19065928451e-89 7.38865284484e-89 -103.293263713 1.64687938869e-78
0 0.077287019364 166.087345104 -38.3550347405 -161.597950216 0 -200.287640805 0 -199.9190354 200.287640805 -90 -38.3550347405 38.6896905897 54.4793616691 134.75112836 -135.24887164 1.18858009632e-82 -1.72299826882e-89 -7.25935956911e-89 7.46103373455e-89 -103.352002561 1.63934946654e-78
1e-05 0.077287019364 166.098398934 -38.3589856052 -161.608373391 0 -200.301603395 0 -199.942269074 200.301603395 -90 -38.3589856052 38.6932300043 54.4846567843 134.751458473 -135.248541527 1.18858010095e-82 -1.91117470294e-89 -8.05185161809e-89 8.27556059908e-89 -103.352498234 1.6395676978e-78
1e-05 0.077664969066 166.487556968 -38.2823286771 -162.026356109 0 -200.648724982 0 -200.655390104 200.648724982 -90 -38.2823286771 38.6223688723 54.3803649089 134.746654369 -135.253345631 1.18845803096e-82 -1.88453834499e-89 -7.9756521393e-89 8.19527816196e-89 -103.293750885 1.64709873791e-78
1e-05 0.078033822604 167.248934443 -38.1324658949 -162.843772979 0 -201.327764189 0 -201.347902277 201.327764189 -90 -38.1324658949 38.4839912102 54.1765867801 134.737113218 -135.262886782 1.1881927307e-82 -1.79640598774e-89 -7.67036786867e-89 7.87792338189e-89 -103.179381343 1.6618260389e-78
1e-05 0.078379102643 167.961342828 -37.9924592724 -163.60795715 0 -201.962954987 0 -201.993063618 201.962954987 -90 -37.9924592724 38.3549978365 53.9864134624 134.727923424 -135.272076576 1.18788018775e-82 -1.64674370943e-89 -7.08990309496e-89 7.2786353029e-89 -103.073422212 1.67557114141e-78
1e-05 0.078689931403 168.60374912 -37.8663971328 -164.296510049 0 -202.535589699 0 -202.571288908 202.535589699 -90 -37.8663971328 38.23907965 53.8153440834 134.719423269 -135.280576731 1.18750888954e-82 -1.45597227713e-89 -6.31566800009e-89 6.48132257163e-89 -102.978741812 1.68788344776e-78
1e-05 0.078960057578 169.163793666 -37.756646663 -164.896368912 0 -203.034700786 0 -203.071820015 203.034700786 -90 -37.756646663 38.1383318747 53.6665327402 134.711850379 -135.288149621 1.18706518757e-82 -1.24639425417e-89 -5.44203632154e-89 5.58294465393e-89 -102.896866596 1.69847883777e-78
1e-05 0.079187714856 169.637648662 -37.6638980248 -165.403610201 0 -203.456923236 0 -203.492228589 203.456923236 -90 -37.6638980248 38.0533130352 53.5408615465 134.70532619 -135.29467381 1.18653283279e-82 -1.03755112053e-89 -4.55536418358e-89 4.67202968053e-89 -102.828073939 1.70724037045e-78
1e-05 0.079374668832 170.028398215 -37.587494199 -165.821684404 0 -203.805043555 0 -203.83649218 203.805043555 -90 -37.587494199 37.9833591514 53.4373960613 134.699866521 -135.300133479 1.18589194058e-82 -8.43583397367e-90 -3.7207543615e-89 3.81518657751e-89 -102.771677279 1.71418715629e-78
1e-05 0.079524954772 170.343752468 -37.5258849953 -166.158955585 0 -204.08595995 0 -204.112592903 204.08595995 -90 -37.5258849953 37.9270043653 53.3540036754 134.695408179 -135.304591821 1.1851175903e-82 -6.72704451742e-90 -2.97807612839e-89 3.05310821397e-89 -102.726379801 1.71942762744e-78
1e-05 0.079643705157 170.593814145 -37.4770653817 -166.426310692 0 -204.308692583 0 -204.330352991 204.308692583 -90 -37.4770653817 37.8823818909 53.2879469438 134.691840025 -135.308159975 1.18417721987e-82 -5.28108336595e-90 -2.34483375031e-89 2.40356904014e-89 -102.690598616 1.72311077889e-78
1e-05 0.079736268909 170.789318867 -37.4389178802 -166.635283204 0 -204.482817659 0 -204.499845172 204.482817659 -90 -37.4389178802 37.8475344551 53.236345082 134.68903018 -135.31096982 1.18302747733e-82 -4.09464102723e-90 -1.82223766369e-89 1.8676753191e-89 -102.662708588 1.72538542791e-78
1e-05 0.079807658136 170.94047372 -37.4094367409 -166.79681909 0 -204.617434957 0 -204.630416601 204.617434957 -90 -37.4094367409 37.8206158672 53.1964749081 134.686845655 -135.313154345 1.18160739816e-82 -3.14377216402e-90 -1.40156858108e-89 1.43639394708e-89 -102.64119618 1.72636593129e-78
1e-05 0.07986226678 171.056327955 -37.3868481243 -166.920611344 0 -204.720609192 0 -204.730208953 204.720609192 -90 -37.3868481243 37.7999978482 53.1659312952 134.685164186 -135.314835814 1.17983273739e-82 -2.39522378276e-90 -1.06930897184e-89 1.09580685507e-89 -102.624737728 1.72611038696e-78
1e-05 0.079903777667 171.144532445 -37.3696548851 -167.01484854 0 -204.799157205 0 -204.80601572 204.799157205 -90 -37.3696548851 37.7843086657 53.1426861184 134.683879884 -135.316120116 1.17757753247e-82 -1.81388130499e-90 -8.10621990903e-90 8.30668207835e-90 -102.612224659 1.72458814162e-78
1e-05 0.079935181834 171.211342637 -37.3566344488 -167.086221961 0 -204.858651588 0 -204.863336637 204.858651588 -90 -37.3566344488 37.7724296268 53.1250842583 134.682904721 -135.317095279 1.17469004474e-82 -1.36701014055e-90 -6.11398121215e-90 6.264940795e-90 -102.602756688 1.72170279819e-78
1e-05 0.079958854196 171.261750926 -37.3468119698 -167.140069659 0 -204.903539216 0 -204.906528415 204.903539216 -90 -37.3468119698 37.7634695572 53.111806573 134.682167608 -135.317832392 1.17087059635e-82 -1.02610345278e-90 -4.59200420741e-90 4.70525142726e-90 -102.595618811 1.71711544979e-78
1e-05 0.079976649736 171.299671983 -37.3394235474 -167.180576099 0 -204.937306699 0 -204.938988178 204.937306699 -90 -37.3394235474 37.7567305995 53.1018197101 134.681612327 -135.318387673 1.16571500885e-82 -7.67487845926e-91 -3.43619146039e-90 3.52085917984e-90 -102.590252374 1.71031197976e-78
1e-05 0.07999 171.328135816 -37.3338781996 -167.210979408 0 -204.962652543 0 -204.963334304 204.962652543 -90 -37.3338781996 37.7516731356 53.094324424 134.681195097 -135.318804903 1.15871068245e-82 -5.72184915682e-91 -2.56264478872e-90 2.6257463504e-90 -102.586226109 1.70060093437e-78
2.2e-05 0.076915933327 165.337795205 -38.5277619902 -160.786187464 0 -199.635429648 0 -199.266430858 199.635429648 -90 -38.5277619902 38.8492421839 54.7142765852 134.761953147 -135.238046853 1.18879395358e-82 -2.44747055302e-89 -1.02139194914e-88 1.05030597201e-88 -103.475204126 1.62487843852e-78
2.2e-05 0.077287019364 165.84776439 -38.4230811623 -161.335425872 0 -200.087754733 0 -199.970153966 200.087754733 -90 -38.4230811623 38.7523288608 54.571752566 134.755555797 -135.244444203 1.18865470657e-82 -2.34745638848e-89 -9.85546803632e-89 1.01311849516e-88 -103.395950215 1.63473362275e-78
2.2e-05 0.077664969066 166.510099465 -38.2903129872 -162.047632709 0 -200.67716047 0 -200.683359874 200.67716047 -90 -38.2903129872 38.6295277611 54.3910700868 134.747319039 -135.252680961 1.18845808507e-82 -2.2619216028e-89 -9.57204993653e-89 9.83567656922e-89 -103.294741233 1.64754488241e-78
2.2e-05 0.078033822604 167.271601002 -38.1403540968 -162.865205457 0 -201.356281554 0 -201.375954167 201.356281554 -90 -38.1403540968 38.4910760972 54.1871716396 134.737765165 -135.262234835 1.1881928358e-82 -2.15613696782e-89 -9.20566344574e-89 9.45480043551e-89 -103.180338359 1.66227666064e-78
2.2e-05 0.078379102643 167.984124857 -38.0002590477 -163.629534062 0 -201.991548673 0 -202.02119174 201.991548673 -90 -38.0002590477 38.3620146118 53.9968876027 134.728563673 -135.271436327 1.18788037699e-82 -1.97650180924e-89 -8.50901613697e-89 8.73555804188e-89 -103.074348933 1.67602598668e-78
2.2e-05 0.078689931403 168.626634781 -37.8741183769 -164.318216059 0 -202.564251964 0 -202.599485122 202.564251964 -90 -37.8741183769 38.2460359051 53.8257198732 134.720053143 -135.279946857 1.18750923785e-82 -1.74752646583e-89 -7.57981316154e-89 7.77865360702e-89 -102.979641928 1.68834219199e-78
2.2e-05 0.078960057578 169.186769307 -37.7643003428 -164.918186619 0 -203.063422647 0 -203.100074994 203.063422647 -90 -37.7643003428 38.1452360281 53.6768238909 134.712471342 -135.287528658 1.18706583977e-82 -1.49597963946e-89 -6.53131819918e-89 6.70045455958e-89 -102.89774405 1.69894117753e-78
2.2e-05 0.079187714856 169.660700186 -37.6714951615 -165.425521825 0 -203.485695379 0 -203.520532797 203.485695379 -90 -37.6714951615 38.0601735537 53.5510818419 134.705939712 -135.294060288 1.18653409231e-82 -1.24531589339e-89 -5.46717282971e-89 5.60720958293e-89 -102.828932589 1.70770620231e-78
2.2e-05 0.079374668832 170.05151216 -37.5950451139 -165.843673092 0 -203.833857063 0 -203.864836611 203.833857063 -90 -37.5950451139 37.9901839713 53.4475584153 134.700473976 -135.299526024 1.18589444148e-82 -1.01250725366e-89 -4.46551148761e-89 4.57886095119e-89 -102.772520666 1.71465686857e-78
2.2e-05 0.079524954772 170.366916698 -37.5333988541 -166.181006235 0 -204.114806776 0 -204.140969535 204.114806776 -90 -37.5333988541 37.9338005413 53.3641195606 134.696010782 -135.303989218 1.18512273934e-82 -8.07411800597e-90 -3.57418489272e-89 3.66424794351e-89 -102.727211021 1.71990277302e-78
2.2e-05 0.079643705157 170.617018204 -37.4845499988 -166.448410343 0 -204.337565787 0 -204.358754983 204.337565787 -90 -37.4845499988 37.8891554439 53.2980261457 134.69243881 -135.30756119 1.18418813618e-82 -6.33863400817e-90 -2.81420289143e-89 2.88470471628e-89 -102.691420278 1.72359546391e-78
2.2e-05 0.079736268909 170.812554046 -37.4463797112 -166.657421095 0 -204.511711459 0 -204.52826688 204.511711459 -90 -37.4463797112 37.8542903642 53.2463956883 134.689625998 -135.310374002 1.18305154565e-82 -4.9146551648e-90 -2.18702194343e-89 2.24156274535e-89 -102.663522827 1.72589005398e-78
2.2e-05 0.079807658136 170.963732954 -37.4168809915 -166.818986514 0 -204.646344666 0 -204.658853483 204.646344666 -90 -37.4168809915 37.8273581518 53.2065034438 134.687439191 -135.312560809 1.18166187553e-82 -3.77345448226e-90 -1.68218389932e-89 1.7239873346e-89 -102.642004707 1.72691541113e-78
2.2e-05 0.07986226678 171.07960563 -37.3942789151 -166.942801392 0 -204.749531085 0 -204.758657425 204.749531085 -90 -37.3942789151 37.8067296928 53.1759429269 134.68575598 -135.31424402 1.17995977681e-82 -2.87514720649e-90 -1.28347790201e-89 1.31528714111e-89 -102.625541889 1.72676617517e-78
2.2e-05 0.079903777667 171.167824164 -37.3770754317 -167.03705581 0 -204.828088368 0 -204.834472991 204.828088368 -90 -37.3770754317 37.7910325579 53.1526848801 134.684470356 -135.315529644 1.17787919483e-82 -2.17763692837e-90 -9.73119748216e-90 9.97187584266e-90 -102.613025503 1.72549960977e-78
2.2e-05 0.079935181834 171.234645002 -37.3640472339 -167.108442281 0 -204.88758977 0 -204.891800559 204.88758977 -90 -37.3640472339 37.7791474889 53.1350732653 134.683494194 -135.316505806 1.17541139207e-82 -1.64171694453e-90 -7.34212926985e-90 7.52343651524e-90 -102.60355502 1.72322924181e-78
2.2e-05 0.079958854196 171.285061328 -37.3542188943 -167.162299829 0 -204.932482691 0 -204.934997347 204.932482691 -90 -37.3542188943 37.7701828625 53.121788212 134.682756328 -135.317243672 1.17256363422e-82 -1.23328702905e-90 -5.51882661917e-90 5.65494864976e-90 -102.596415247 1.72006684994e-78
2.2e-05 0.079976649736 171.322988437 -37.3468260582 -167.202813685 0 -204.966254155 0 -204.967460874 204.966254155 -90 -37.3468260582 37.7634404702 53.1117957982 134.682200482 -135.317799518 1.16971865314e-82 -9.24171816359e-91 -4.137424798e-90 4.23938409819e-90 -102.591047383 1.716653888e-78
2.2e-05 0.07999 171.351456819 -37.3412773926 -167.233222566 0 -204.991602988 0 -204.991809823 204.991602988 -90 -37.3412773926 37.7583804221 53.1042963377 134.681782829 -135.318217171 1.16755025652e-82 -6.91675058444e-91 -3.09760297281e-90 3.17388698164e-90 -102.587020044 1.71404162216e-78
3.64e-05 0.076915933327 165.353627696 -38.5335253014 -160.801087111 0 -199.655482763 0 -199.299798298 199.655482763 -90 -38.5335253014 38.8543956519 54.7219940591 134.762438173 -135.237561827 1.18879400237e-82 -2.7149067974e-89 -1.13293015547e-88 1.16500554786e-88 -103.475943047 1.62518972421e-78
3.64e-05 0.077287019364 165.754382208 -38.4543744704 -161.231961957 0 -200.013025903 0 -200.003622291 200.013025903 -90 -38.4543744704 38.7810639457 54.6141909887 134.757643136 -135.242356864 1.18868613374e-82 -2.73431473743e-89 -1.14649023931e-88 1.17864591546e-88 -103.414773339 1.63293744478e-78
3.64e-05 0.077664969066 166.537156837 -38.2998951001 -162.073170889 0 -200.711289803 0 -200.716930072 200.711289803 -90 -38.2998951001 38.6381189134 54.4039173173 134.748116639 -135.251883361 1.18845822125e-82 -2.71499100381e-89 -1.14882860846e-88 1.18047466551e-88 -103.295929113 1.64808056133e-78
3.64e-05 0.078033822604 167.298807272 -38.1498208343 -162.89093073 0 -201.390509157 0 -201.409622929 201.390509157 -90 -38.1498208343 38.4995784269 54.1998744409 134.738547489 -135.261452511 1.18819308136e-82 -2.5880123717e-89 -1.10485573722e-88 1.13476231355e-88 -103.18148624 1.66281778265e-78
3.64e-05 0.078379102643 168.011469716 -38.0096196312 -163.655432691 0 -202.025867879 0 -202.054951995 202.025867879 -90 -38.0096196312 38.3704351873 54.0094574968 134.729331952 -135.270668048 1.18788080608e-82 -2.37239210394e-89 -1.02124521927e-88 1.04843936181e-88 -103.075460458 1.67657229685e-78
3.64e-05 0.078689931403 168.654104021 -37.8833846856 -164.344269641 0 -202.598653479 0 -202.633327103 202.598653479 -90 -37.8833846856 38.2543838375 53.8381717066 134.720808965 -135.279191035 1.18751000932e-82 -2.09755044107e-89 -9.0972354926e-89 9.33592324388e-89 -102.980721525 1.6888934006e-78
3.64e-05 0.078960057578 169.214346544 -37.7734855417 -164.944374268 0 -203.097895689 0 -203.133987506 203.097895689 -90 -37.7734855417 38.1535214215 53.689174122 134.713216467 -135.286783533 1.1870672643e-82 -1.79561797325e-89 -7.83884577822e-89 8.04187628279e-89 -102.898796452 1.69949711907e-78
3.64e-05 0.079187714856 169.688368501 -37.6806124811 -165.451822201 0 -203.520228771 0 -203.554504393 203.520228771 -90 -37.6806124811 38.0684065702 53.5633470166 134.706675904 -135.293324096 1.1865368152e-82 -1.4947471502e-89 -6.56167379755e-89 6.72977301797e-89 -102.829962425 1.70826716198e-78
3.64e-05 0.079374668832 170.079255392 -37.6041069448 -165.870065966 0 -203.868440103 0 -203.898856484 203.868440103 -90 -37.6041069448 37.998374137 53.4597540351 134.701202884 -135.298797116 1.18589981271e-82 -1.21530943363e-89 -5.35949746119e-89 5.49556144276e-89 -102.773532186 1.71522417194e-78
3.64e-05 0.079524954772 170.394720287 -37.5424161998 -166.207473481 0 -204.149429805 0 -204.175028056 204.149429805 -90 -37.5424161998 37.9419563243 53.3762593978 134.696733867 -135.303266133 1.18513371426e-82 -9.69137687992e-90 -4.28974959927e-89 4.39786103535e-89 -102.72820794 1.72048013616e-78
3.64e-05 0.079643705157 170.644869596 -37.49353224 -166.474936404 0 -204.372220475 0 -204.392843941 204.372220475 -90 -37.49353224 37.8972840711 53.3101219471 134.693157311 -135.306842689 1.18421120889e-82 -7.60834381507e-90 -3.3776505533e-89 3.46228147982e-89 -102.692405727 1.72419184228e-78
3.64e-05 0.079736268909 170.84044279 -37.4553345982 -166.683993055 0 -204.546390867 0 -204.562379501 204.546390867 -90 -37.4553345982 37.8623978128 53.2584571631 134.690340939 -135.309659061 1.18310151053e-82 -5.89925126155e-90 -2.62495639345e-89 2.69042896575e-89 -102.664499368 1.72652662709e-78
3.64e-05 0.079807658136 170.99165057 -37.4258147742 -166.845593921 0 -204.681043167 0 -204.692984317 204.681043167 -90 -37.4258147742 37.8354492466 53.2185384248 134.688151392 -135.311848608 1.18177183202e-82 -4.52964550159e-90 -2.01912812185e-89 2.06931277463e-89 -102.642974393 1.72764025968e-78
3.64e-05 0.07986226678 171.107545378 -37.4031965403 -166.969435953 0 -204.78424421 0 -204.79280217 204.78424421 -90 -37.4031965403 37.8148082568 53.1879576172 134.686466089 -135.313533911 1.18020413276e-82 -3.45169887718e-90 -1.54073047771e-89 1.5789213695e-89 -102.626506337 1.72768804842e-78
3.64e-05 0.079903777667 171.195780769 -37.3859807604 -167.063711042 0 -204.86281262 0 -204.868628297 204.86281262 -90 -37.3859807604 37.7991015776 53.1646841227 134.685178878 -135.314821122 1.17842293906e-82 -2.61495756978e-90 -1.16845245754e-89 1.1973559153e-89 -102.613985969 1.72686028696e-78
3.64e-05 0.079935181834 171.262614381 -37.372943247 -167.135113173 0 -204.922322445 0 -204.925963848 204.922322445 -90 -37.372943247 37.7872092724 53.1470608012 134.684201516 -135.315798484 1.17656528103e-82 -1.97240064808e-90 -8.82032458786e-90 9.03816853825e-90 -102.604512472 1.72548473393e-78
3.64e-05 0.079958854196 171.313040353 -37.3631078748 -167.188982542 0 -204.967221721 0 -204.969166649 204.967221721 -90 -37.3631078748 37.778239179 53.1337669071 134.683462747 -135.316537253 1.17485710361e-82 -1.48308487116e-90 -6.63612191751e-90 6.79982756842e-90 -102.597370425 1.72399466206e-78
3.64e-05 0.079976649736 171.350974724 -37.3557097442 -167.229505296 0 -205.000997963 0 -205.001634693 205.000997963 -90 -37.3557097442 37.7714926679 53.1237678353 134.682906223 -135.317093777 1.17382150928e-82 -1.11300603483e-90 -4.98242454809e-90 5.10522642498e-90 -102.59200085 1.72323833786e-78
3.64e-05 0.07999 171.37944856 -37.350157101 -167.259920859 0 -205.026350382 0 -205.02598703 205.026350382 -90 -37.350157101 37.7664295231 53.1162633714 134.682488062 -135.317511938 1.17385128024e-82 -8.34496367433e-91 -3.73692118872e-90 3.82896385082e-90 -102.587972225 1.7238550526e-78
5.368e-05 0.076566547332 164.633991457 -38.7030160665 -160.020085272 0 -199.03127074 0 -198.673932573 199.03127074 -90 -38.7030160665 39.0111854683 54.9526709477 134.772799396 -135.227200604 1.18898122745e-82 -3.33388246312e-89 -1.37841494089e-88 1.41815918431e-88 -103.596645524 1.61132823456e-78
5.368e-05 0.076915933327 165.130724841 -38.5987774987 -160.556109318 0 -199.4706281 0 -199.339848498 199.4706281 -90 -38.5987774987 38.9145187819 54.8106323139 134.766605384 -135.233394616 1.18885761289e-82 -3.28433357895e-89 -1.36609935764e-88 1.40502592414e-88 -103.517890366 1.62090478347e-78
5.368e-05 0.077287019364 165.786675549 -38.4660192602 -161.262383596 0 -200.053869125 0 -200.04379358 200.053869125 -90 -38.4660192602 38.7914855292 54.6297904824 134.758619445 -135.241380555 1.18868628992e-82 -3.28217970217e-89 -1.37605015762e-88 1.41465307178e-88 -103.416248877 1.63357400673e-78
5.368e-05 0.077664969066 166.569634867 -38.3113949866 -162.103825726 0 -200.752254718 0 -200.757223635 200.752254718 -90 -38.3113949866 38.6484289927 54.4193354536 134.749073751 -135.250926249 1.18845848561e-82 -3.25897611735e-89 -1.37885749387e-88 1.41684840706e-88 -103.297353794 1.64872381402e-78
5.368e-05 0.078033822604 167.331464014 -38.1611822048 -162.921810133 0 -201.431592023 0 -201.450034794 201.431592023 -90 -38.1611822048 38.5097818896 54.2151191945 134.739486258 -135.260513742 1.18819354381e-82 -3.10654852909e-89 -1.32608076661e-88 1.36198326258e-88 -103.18286292 1.66346766485e-78
5.368e-05 0.078379102643 168.044292801 -38.0208535565 -163.686520176 0 -202.067060693 0 -202.095473676 202.067060693 -90 -38.0208535565 38.3805405163 54.0245426982 134.730253858 -135.269746142 1.18788160355e-82 -2.8477207998e-89 -1.22572975209e-88 1.25837585595e-88 -103.076793509 1.67722857195e-78
5.368e-05 0.078689931403 168.687076395 -37.8945054271 -164.375543119 0 -202.639945086 0 -202.673946876 202.639945086 -90 -37.8945054271 38.2644019678 53.8531151775 134.721715915 -135.278284085 1.18751142803e-82 -2.5178085513e-89 -1.09187896926e-88 1.12053291919e-88 -102.982016262 1.68955585926e-78
5.368e-05 0.078960057578 169.247448543 -37.7845089048 -164.975808668 0 -203.139273149 0 -203.174691934 203.139273149 -90 -37.7845089048 38.1634644806 53.7039956196 134.714110573 -135.285889427 1.18706986708e-82 -2.15538030327e-89 -9.40844255305e-89 9.65217564129e-89 -102.900058553 1.70016583874e-78
5.368e-05 0.079187714856 169.72157982 -37.6915543497 -165.483391911 0 -203.561678667 0 -203.59527974 203.561678667 -90 -37.6915543497 38.078286756 53.5780664034 134.707559286 -135.292440714 1.18654176497e-82 -1.79422916913e-89 -7.87555561838e-89 8.07735433625e-89 -102.831197444 1.70894305109e-78
5.368e-05 0.079374668832 170.112556635 -37.6149821947 -165.901746705 0 -203.909949589 0 -203.939689775 203.909949589 -90 -37.6149821947 38.008202884 53.4743899207 134.70207752 -135.29792248 1.18590953643e-82 -1.45880836056e-89 -6.43268722969e-89 6.59602871286e-89 -102.774745224 1.71591000001e-78
5.368e-05 0.079524954772 170.428093974 -37.5532380415 -166.239243491 0 -204.190987288 0 -204.215907734 204.190987288 -90 -37.5532380415 37.9517437976 53.3908283156 134.697601511 -135.302398489 1.1851534457e-82 -1.16332221451e-89 -5.14877552835e-89 5.27856147014e-89 -102.729403456 1.72118283241e-78
5.368e-05 0.079643705157 170.678300662 -37.5043119365 -166.506777011 0 -204.413815957 0 -204.433760152 204.413815957 -90 -37.5043119365 37.9070389464 53.3246379996 134.694019453 -135.305980547 1.18425221669e-82 -9.13296808782e-90 -4.05409936869e-89 4.1556989723e-89 -102.693587478 1.72492724963e-78
5.368e-05 0.079736268909 170.873918688 -37.4660814546 -166.715888755 0 -204.588016021 0 -204.603324114 204.588016021 -90 -37.4660814546 37.8721272654 53.272932007 134.691198805 -135.308801195 1.1831882323e-82 -7.08165449546e-90 -3.15078014116e-89 3.22938294904e-89 -102.665670431 1.72732997868e-78
5.368e-05 0.079807658136 171.025161123 -37.4365362942 -166.877532169 0 -204.722691238 0 -204.73395079 204.722691238 -90 -37.4365362942 37.845159069 53.2329814645 134.689005969 -135.310994031 1.1819554486e-82 -5.43796460663e-90 -2.42378695129e-89 2.48404064475e-89 -102.644137229 1.72858611676e-78
5.368e-05 0.07986226678 171.141082494 -37.4138986642 -167.001406793 0 -204.825909832 0 -204.833785339 204.825909832 -90 -37.4138986642 37.8245030391 53.2023763006 134.687318155 -135.312681845 1.1805890286e-82 -4.1445414797e-90 -1.84981736919e-89 1.89567839846e-89 -102.627662888 1.7289291902e-78
5.368e-05 0.079903777667 171.229338115 -37.3966681244 -167.095706691 0 -204.904491597 0 -204.909624142 204.904491597 -90 -37.3966681244 37.8087849059 53.1790842653 134.686029038 -135.313970962 1.17920635668e-82 -3.14086922524e-90 -1.40331442961e-89 1.43803407467e-89 -102.615137743 1.72868604361e-78