TITLE = "Electromagnetic Field"
VARIABLES = X Y E ER EI EvR EvI EvR' EvI' Ev EvPhase EpR EpI Ep EpPhase EpToEvPhaseShift elConductivity Jr Ji J Jphase QJ
ZONE N=284, E=249, F=FEPOINT, ET=QUADRILATERAL
0.0015473999969 0.025929878286 46.0122416205 -37.2288095648 -27.0396397411 0 -80.860987105 0 -76.8429132136 80.860987105 -90 -37.2288095648 53.8213473639 65.4425067802 124.672029944 -145.327970056 112.964996235 -0.00361591575907 -0.00262627413023 0.00446902255352 -144.008737959 119580.586713
0.0015473999969 0.028621113072 48.9653093012 -38.7331616228 -29.9245475522 0 -84.7017820026 0 -84.5485930183 84.7017820026 -90 -38.7331616228 54.7772344504 67.0914379381 125.250048912 -144.749951088 109.512115254 -0.00364257267445 -0.00280907224392 0.00460171078354 -142.407558917 131261.433631
0.0015473999969 0.031312347858 55.0046105489 -41.5689445869 -35.9885472315 0 -92.3417665268 0 -92.1748793719 92.3417665268 -90 -41.5689445869 56.3532192953 70.029689149 126.403736761 -143.596263239 102.613648869 -0.00366354946547 -0.00316573532133 0.0048437363115 -139.205297369 155132.942464
0.0015473999969 0.034003582644 61.2970206137 -44.0361002675 -42.6064641634 0 -99.8949335926 0 -99.7145409084 99.8949335926 -90 -44.0361002675 57.2884694292 72.2609766432 127.54118601 -142.45881399 95.7086538462 -0.0036203476679 -0.00349585276518 0.00503458854536 -136.027793328 179616.293529
0.0015473999969 0.036694817429 67.8120739561 -46.0977964439 -49.7010764469 0 -107.354109735 0 -107.160421559 107.354109735 -90 -46.0977964439 57.6530332879 73.8197702133 128.640389051 -141.359610949 88.7640984053 -0.00351536253422 -0.00378218129166 0.00516543383296 -132.920659595 203793.770015
0.0015473999969 0.039386052215 74.5125481476 -47.7351277024 -57.1825042191 0 -114.712208319 0 -114.505452212 114.712208319 -90 -47.7351277024 57.5297040994 74.7578886404 129.681939103 -140.318060897 81.758506101 -0.00335341677633 -0.00400809937428 0.00522763919036 -129.921495172 226547.067721
0.0015473999969 0.042077287001 81.357297572 -48.9464210139 -64.9564685269 0 -121.962242348 0 -121.742663467 121.962242348 -90 -48.9464210139 57.0057738207 75.1384065501 130.649754044 -139.350245956 74.6147486522 -0.00313852379433 -0.00415488060781 0.00520859280732 -127.058207988 246364.811828
0.0015473999969 0.044768521787 88.3042924736 -49.7440749766 -72.931989268 0 -129.097338402 0 -128.865199554 129.097338402 -90 -49.7440749766 56.1653491336 75.0287872649 131.531352288 -138.468647712 67.2107241623 -0.0028736174916 -0.00420146568507 0.00509152625786 -124.348415009 261286.574587
0.0015473999969 0.047459756572 95.313248957 -50.150440051 -81.0268306131 0 -136.110751753 0 -135.86633339 136.110751753 -90 -50.150440051 55.0839211394 74.4951975817 132.317691727 -137.682308273 59.4015649448 -0.00256096761868 -0.00412421142733 0.00485577843001 -121.800348909 268837.492249
0.0015473999969 0.050150991358 102.347368137 -50.1943467839 -89.1699556011 0 -142.995882603 0 -142.739482784 142.995882603 -90 -50.1943467839 53.8259270016 73.5993770863 133.002773324 -136.997226676 50.9576615412 -0.00219941960236 -0.00389134698492 0.00447080389855 -119.415063338 265615.577747
0.0015473999969 0.052842226144 109.373996309 -49.9092597395 -97.301293642 0 -149.746293453 0 -149.478227714 149.746293453 -90 -49.9092597395 52.4449998107 72.3983657137 133.58327745 -136.41672255 41.5570997299 -0.00178423300581 -0.00345925097682 0.00389296589738 -117.18931818 246910.105645
0.0015473999969 0.05553346093 116.364410593 -49.3327764626 -105.370074823 0 -156.355727494 0 -156.07632867 156.355727494 -90 -49.3327764626 50.9856526711 70.9459515107 134.058393237 -135.941606763 30.7474887704 -0.00130597229723 -0.0027655258563 0.00305883309554 -115.118187996 205996.858113
0.0015473999969 0.058224695716 123.293183391 -48.5066144376 -113.332999515 0 -162.818127972 0 -162.527745931 162.818127972 -90 -48.5066144376 49.4851284566 69.2943513627 134.429891525 -135.570108475 18.5358418305 -0.00077563292491 -0.00178450022648 0.00194600393693 -113.196786551 138279.979487
0.0015473999969 0.060915930501 126.739164552 -48.0365864779 -117.283000434 0 -166.011825849 0 -168.826659667 166.011825849 -90 -48.0365864779 48.7288254147 68.4252297529 134.590125313 -135.409874687 12.1487017509 -0.000501761426247 -0.00122506801351 0.00132384144315 -112.272947625 97571.1794065
0.0018668799962 0.017856173929 30.0275827682 -27.0230569232 -13.0923688242 0 -57.634498769 0 -53.5291090484 57.634498769 -90 -27.0230569232 44.5421299448 52.098435154 121.244574079 -148.755425921 171.639726006 -0.00478551627283 -0.0023185291078 0.00531758810188 -154.150330798 77379.9709583
0.0018668799962 0.020547408715 32.5565209065 -28.8843895415 -14.997367839 0 -61.59488985 0 -61.45947413 61.59488985 -90 -28.8843895415 46.597522011 54.8259680856 121.767501831 -148.232498169 166.69346586 -0.00495823438252 -0.00256962728471 0.00558638545033 -152.675334933 88467.2608791
0.0018668799962 0.0232386435 37.7583407394 -32.5311706989 -19.1405869602 0 -69.4849244654 0 -69.3322324379 69.4849244654 -90 -32.5311706989 50.3443375052 59.9430414806 122.847270137 -147.152729863 156.867836255 -0.00525615372118 -0.00308661977175 0.00609769911714 -149.638985084 111890.54452
0.0018668799962 0.025929878286 44.062787956 -36.3550735628 -24.8611802111 0 -78.354229698 0 -77.1399503727 78.354229698 -90 -36.3550735628 53.4930494869 64.680887902 124.185680586 -145.814319414 137.137300645 -0.00491634596127 -0.00333157348629 0.00594158007687 -145.739100046 132361.902456
0.0018668799962 0.028621113072 49.0020414803 -38.9845068902 -29.6542105426 0 -84.8982376558 0 -84.8752405084 84.8982376558 -90 -38.9845068902 55.2440271133 67.6178398275 125.195837446 -144.804162554 124.917793517 -0.0046902297407 -0.00355071656972 0.00588517933053 -142.838817406 149949.027229
0.0018668799962 0.031312347858 55.053155206 -41.8446241013 -35.7398540871 0 -92.5558105576 0 -92.5307700824 92.5558105576 -90 -41.8446241013 56.8159564705 70.5658584258 126.361057108 -143.638942892 116.763655273 -0.00470579185132 -0.00400151626668 0.00617970567029 -139.590055313 176849.52637
0.0018668799962 0.034003582644 61.3596224292 -44.3314941662 -42.387390475 0 -100.12632295 0 -100.099270508 100.12632295 -90 -44.3314941662 57.7389324746 72.7982582214 127.509634562 -142.490365438 108.760675025 -0.00464413408775 -0.00442205741353 0.00641528340238 -136.367717423 204563.325401
0.0018668799962 0.036694817429 67.8907901586 -46.4075414011 -49.5179475761 0 -107.602578646 0 -107.573547948 107.602578646 -90 -46.4075414011 58.0846310695 74.3503893043 128.61926628 -141.38073372 100.873614081 -0.00450982678057 -0.00479306141647 0.00658367528014 -133.218348559 232197.795304
0.0018668799962 0.039386052215 74.6091031439 -48.0536380697 -57.039731673 0 -114.977467976 0 -114.946495011 114.977467976 -90 -48.0536380697 57.9377363034 75.2753624222 129.670309034 -140.329690966 93.0643873105 -0.00430946473904 -0.00509572851546 0.00667598506473 -130.180286443 258641.702438
0.0018668799962 0.042077287001 81.4729903231 -49.2683497158 -64.8565632924 0 -122.243980629 0 -122.21110355 122.243980629 -90 -49.2683497158 57.3874173367 75.6377357309 130.646524396 -139.353475604 85.2422804409 -0.00404869985736 -0.00530933617583 0.00667897537483 -127.281896386 282398.278209
0.0018668799962 0.044768521787 88.4399756554 -50.0646007129 -72.8758325367 0 -129.395219628 0 -129.360478661 129.395219628 -90 -50.0646007129 56.5193870912 75.5063809612 131.535354007 -138.464645993 77.2752908524 -0.00373191261698 -0.00541103034167 0.00657496361192 -124.540923062 301534.616479
0.0018668799962 0.047459756572 95.4693775529 -50.4653502352 -81.0140976355 0 -136.424416507 0 -136.38785383 136.424416507 -90 -50.4653502352 55.4103188713 74.9485883102 132.327737699 -137.672262301 69.0122697249 -0.00336265193469 -0.00537563066306 0.00634225123574 -121.965421371 313628.641632
0.0018668799962 0.050150991358 102.524092025 -50.4999804183 -89.1995515262 0 -143.324947619 0 -143.286607256 143.324947619 -90 -50.4999804183 54.1253960926 74.0268632953 133.017688072 -136.982311928 60.2318963368 -0.00294111889707 -0.00517050174259 0.00594970880474 -119.556056335 315423.306321
0.0018668799962 0.052842226144 109.57125925 -50.2024267944 -97.3716839225 0 -150.090351589 0 -150.05027927 150.090351589 -90 -50.2024267944 52.7186676663 72.7987346641 133.601905143 -136.398094857 50.641436964 -0.0024643229192 -0.0047525103403 0.0053543959385 -117.309121867 302532.922654
0.0018668799962 0.05553346093 116.582025704 -49.6107318996 -105.479475617 0 -156.714347806 0 -156.672590843 156.714347806 -90 -49.6107318996 51.2348721891 71.3183513159 134.079597839 -135.920402161 39.855689655 -0.00192566989765 -0.00406299057634 0.0044969209574 -115.219261068 268943.116274
0.0018668799962 0.058224695716 123.53087188 -48.7670815613 -113.479465131 0 -163.190855899 0 -163.147463051 163.190855899 -90 -48.7670815613 49.7113907685 69.6382752696 134.452553391 -135.547446609 27.6135661887 -0.0013241284855 -0.00304540336561 0.00332123436058 -113.281240638 208304.804288
0.0018668799962 0.060915930501 126.98680974 -48.2878010442 -117.447495017 0 -166.391491008 0 -169.469037393 166.391491008 -90 -48.2878010442 48.9439959907 68.7548333843 134.613237553 -135.386762447 21.1188445132 -0.00100848839363 -0.00244901748027 0.00264853598515 -112.349582448 170513.122456
0.0022502559955 0.017856173929 30.0462151423 -27.2018746899 -12.7558748711 0 -57.7953684989 0 -53.7779942146 57.7953684989 -90 -27.2018746899 45.0394936279 52.616603962 121.131062691 -148.868937309 206.203906261 -0.00651602984434 -0.00303382821978 0.00718811370333 -154.876160257 93094.0244283
0.0022502559955 0.020547408715 32.5779597938 -29.0816664298 -14.6534785817 0 -61.7667814852 0 -61.7451377184 61.7667814852 -90 -29.0816664298 47.1133029035 55.3685522417 121.660385298 -148.339614702 199.056259122 -0.00670641677838 -0.00334952823022 0.00749937785277 -153.374063007 105698.754276
0.0022502559955 0.0232386435 37.786368664 -32.7655753781 -18.7878712805 0 -69.6787599236 0 -69.654363047 69.6787599236 -90 -32.7655753781 50.8908886431 60.529560933 122.753365643 -147.246634357 185.110562156 -0.00702320280856 -0.00399622234792 0.00808406828387 -150.282176335 132151.750201
0.0022502559955 0.025929878286 43.2872834511 -36.2620400542 -23.6040340864 0 -77.5253137694 0 -77.4981937644 77.5253137694 -90 -36.2620400542 53.921279683 64.9837531335 123.903009412 -146.096990588 171.886617271 -0.00721426972087 -0.00466425154102 0.00859466781233 -147.045763204 160972.220213
0.0022502559955 0.028621113072 49.0806515728 -39.4991951124 -29.0948085834 0 -85.2990087603 0 -85.2691989375 85.2990087603 -90 -39.4991951124 56.2042001769 68.6994461731 125.084810314 -144.915189686 159.421208861 -0.0072858600556 -0.0053345112132 0.00903416840678 -143.725758256 191880.79505
0.0022502559955 0.031312347858 55.1555312503 -42.409555027 -35.2251629465 0 -92.9924646566 0 -92.9600016054 92.9924646566 -90 -42.409555027 57.7673017101 71.6671841992 126.273712927 -143.726287073 147.719739275 -0.0072466786566 -0.00598666985779 0.0094039845728 -140.380864926 224488.635756
0.0022502559955 0.034003582644 61.4903333522 -44.9370734072 -41.9339271217 0 -100.59836476 0 -100.563288287 100.59836476 -90 -44.9370734072 58.6644376382 73.9013891239 127.445134378 -142.554865622 136.720733675 -0.00710560417808 -0.00659832706319 0.00970099269607 -137.065832626 258196.67852
0.0022502559955 0.036694817429 68.0540495582 -47.042624904 -49.1387790831 0 -108.109466518 0 -108.071819574 108.109466518 -90 -47.042624904 58.9706874347 75.4392545061 128.576158651 -141.423841349 126.298604189 -0.00687079868005 -0.00714457345391 0.00991626556079 -133.829164929 292100.148937
0.0022502559955 0.039386052215 74.8084610873 -48.7066356879 -56.7439184604 0 -115.518613242 0 -115.478441859 115.518613242 -90 -48.7066356879 58.7746947815 76.3366061024 129.646654494 -140.353345506 116.333233694 -0.00655233985188 -0.00760129422321 0.0100392726993 -130.710758142 325052.954483
0.0022502559955 0.042077287001 81.7111325737 -49.9281997787 -64.6491900848 0 -122.818747009 0 -122.776100201 122.818747009 -90 -49.9281997787 58.1695569242 76.6611213776 130.640064025 -139.359935975 106.697859993 -0.00616080016972 -0.00794497404909 0.0100570635117 -127.739945194 355611.401285
0.0022502559955 0.044768521787 88.7186728106 -50.72137103 -72.7585872647 0 -130.00292273 0 -129.957852405 130.00292273 -90 -50.72137103 57.2443354654 76.4846256148 131.543676896 -138.456323104 97.2279985355 -0.00570442408546 -0.00815027433757 0.00995111546441 -124.934740048 381913.02524
0.0022502559955 0.047459756572 95.7895811596 -51.1104008136 -80.9861738624 0 -137.064323439 0 -137.016884288 137.064323439 -90 -51.1104008136 56.0781495762 75.8767492023 132.348403905 -137.651596095 87.7323472424 -0.00518893717057 -0.00818870797473 0.00969677355452 -122.302818393 401591.620662
0.0022502559955 0.050150991358 102.886125368 -51.1258277746 -89.2585720004 0 -143.996276744 0 -143.94652614 143.996276744 -90 -51.1258277746 54.7377047435 74.9015723925 133.048289789 -136.951710211 77.9775100046 -0.00461668933358 -0.00802532222496 0.00926051133318 -119.844019215 411577.936674
0.0022502559955 0.052842226144 109.975023164 -50.8025640374 -97.5143932218 0 -150.792272458 0 -150.740270315 150.792272458 -90 -50.8025640374 53.2778792358 73.6176117476 133.640082389 -136.359917611 67.695582853 -0.00398750184588 -0.00761684135956 0.00859908520968 -117.553650241 407940.042179
0.0022502559955 0.05553346093 117.027155161 -50.1795725739 -105.702130633 0 -157.44598129 0 -157.391789939 157.44598129 -90 -50.1795725739 51.7438506574 72.0797416427 134.123038497 -135.876961503 56.5822522579 -0.00329923358051 -0.00690926350102 0.00765778993576 -115.425447472 385655.955257
0.0022502559955 0.058224695716 124.016814506 -49.3000151834 -113.778005509 0 -163.951274561 0 -163.894958602 163.951274561 -90 -49.3000151834 50.1732690519 70.3412307136 134.498987517 -135.501012483 44.2323572985 -0.00254494229058 -0.00582779767896 0.00636010692209 -113.453455564 337867.677532
0.0022502559955 0.060915930501 127.492999735 -48.8017558384 -117.782929189 0 -167.16606439 0 -170.24387094 167.16606439 -90 -48.8017558384 49.3831352006 69.4284263175 134.660605534 -135.339394466 37.6878298611 -0.00214995299384 -0.00518243024842 0.00561069865133 -112.505826473 306588.786378
0.0027103071946 0.017856173929 30.0909234681 -27.5658511237 -12.058390074 0 -58.123752338 0 -54.0784580175 58.123752338 -90 -27.5658511237 46.0653622641 53.6834029377 120.897977169 -149.102022831 306.510639602 -0.0118488081273 -0.00512436893701 0.0129105512729 -156.372809679 138819.551758
0.0027103071946 0.020547408715 32.6283894195 -29.4837775014 -13.9405277021 0 -62.1176653984 0 -62.0900045783 62.1176653984 -90 -29.4837775014 48.1771376963 56.4856520663 121.440451862 -148.559548138 290.928466867 -0.0119764778492 -0.00558431196571 0.013220462934 -154.814759227 154566.436049
0.0027103071946 0.0232386435 37.850125264 -33.2444588196 -18.056368467 0 -70.0744402444 0 -70.043258074 70.0744402444 -90 -33.2444588196 52.0180717774 61.7371317675 122.560608149 -147.439391851 261.628840198 -0.0121309726161 -0.00651225577579 0.0137752015804 -151.608136076 187024.773981
0.0027103071946 0.025929878286 43.3685671814 -36.8167494762 -22.8790874801 0 -77.9653565371 0 -77.9306904265 77.9653565371 -90 -36.8167494762 55.086269057 66.26056618 123.738804378 -146.261195622 235.867654893 -0.0120996089359 -0.00744523914276 0.0142139962315 -148.252766807 221359.660734
0.0027103071946 0.028621113072 49.1844144038 -40.1247846659 -28.4015267647 0 -85.7829266219 0 -85.7448182286 85.7829266219 -90 -40.1247846659 57.3813998571 70.0227665344 124.949767649 -145.050232351 213.27465301 -0.0119130361048 -0.00836184287827 0.0145622040818 -144.81243129 257461.054229
0.0027103071946 0.031312347858 55.2871887723 -43.0971979209 -34.5871462162 0 -93.5197159897 0 -93.478211185 93.5197159897 -90 -43.0971979209 58.9325697736 73.0138394642 126.167618585 -143.832381415 193.465525457 -0.0115980645291 -0.00924087117626 0.014836733824 -141.348650235 295134.269594
0.0027103071946 0.034003582644 61.6553737306 -45.6747833967 -41.3716996217 0 -101.16835279 0 -101.123501613 101.16835279 -90 -45.6747833967 59.7966531679 75.2491403207 127.366940196 -142.633059804 175.994641207 -0.0111743458088 -0.0100580381981 0.015041432804 -137.918931566 333923.505081
0.0027103071946 0.036694817429 68.2575986804 -47.816466225 -48.668502114 0 -108.72153845 0 -108.673395054 108.72153845 -90 -47.816466225 60.0530363361 76.7682009463 128.524055202 -141.475944798 160.413551037 -0.0106570727423 -0.0107866513596 0.0151699362795 -134.574285851 373054.712478
0.0027103071946 0.039386052215 75.0548826941 -49.5021531617 -56.3766718557 0 -116.172059443 0 -116.12068204 116.172059443 -90 -49.5021531617 59.7953875868 77.6303150293 129.618229009 -140.381770991 146.32668008 -0.0100601446842 -0.0113997637083 0.0152100192388 -131.356620166 411448.376261
0.0027103071946 0.042077287001 82.0037571698 -50.7316773489 -64.3910193442 0 -123.512800255 0 -123.458251041 123.512800255 -90 -50.7316773489 59.1217809108 77.9071477851 130.632516205 -139.367483795 133.368181499 -0.00939469537605 -0.0118690508694 0.0151425278349 -128.29652273 447643.727529
0.0027103071946 0.044768521787 89.0597154902 -51.5205932887 -72.6112667543 0 -130.736757567 0 -130.679102641 130.736757567 -90 -51.5205932887 58.1254908132 77.6742818333 131.554033707 -138.445966293 121.168109252 -0.00866691038091 -0.0121612483125 0.0149381681026 -125.412357068 479626.97103
0.0027103071946 0.047459756572 96.1802497208 -51.8948327946 -80.9483873512 0 -137.837055678 0 -137.776364939 137.837055678 -90 -51.8948327946 56.8886683271 77.0042869062 132.373675619 -137.626324381 109.411986371 -0.00788297463518 -0.012243670034 0.0145657886711 -122.711303968 505010.820405
0.0027103071946 0.050150991358 103.326854803 -51.8864020413 -89.3271113497 0 -144.806963133 0 -144.743310187 144.806963133 -90 -51.8864020413 55.4798517829 75.9631688042 133.085544682 -136.914455318 97.8215767281 -0.00704841041405 -0.0120818397733 0.013990755108 -120.192126155 520939.507375
0.0027103071946 0.052842226144 110.465733264 -51.5314237957 -97.6850390646 0 -151.639910558 0 -151.573372582 151.639910558 -90 -51.5314237957 53.9548714931 74.6106076086 133.686463157 -136.313536843 86.0875057331 -0.00616395153905 -0.011630882996 0.0131658806671 -117.84885509 523740.457061
0.0027103071946 0.05553346093 117.567446008 -50.8699948149 -105.970127773 0 -158.329509608 0 -158.260167221 158.329509608 -90 -50.8699948149 52.3593818351 73.0023209576 134.175760724 -135.824239276 73.910275058 -0.00522984719576 -0.0108385386113 0.0120363730696 -115.674066575 508974.193236
0.0027103071946 0.058224695716 124.606061057 -49.9464949667 -114.138249855 0 -164.869572958 0 -164.797510072 164.869572958 -90 -49.9464949667 50.7313231031 71.1924281557 134.55533493 -135.44466507 60.9740681928 -0.00424503475203 -0.0096409986969 0.0105357032468 -113.660898635 471149.656104
0.0027103071946 0.060915930501 128.106542273 -49.4250485577 -118.187983006 0 -168.101460497 0 -171.179438862 168.101460497 -90 -49.4250485577 49.9134774908 70.2438047943 134.718094474 -135.281905526 54.2736894325 -0.00373961818124 -0.00893192902878 0.00968320013411 -112.693937614 445703.165742
0.0032623686335 0.017856173929 30.1610567754 -28.002549958 -11.19236359 0 -58.5207406728 0 -54.4416257132 58.5207406728 -90 -28.002549958 47.3283770828 54.9921813956 120.613322319 -149.386677681 566.949127044 -0.0270098661999 -0.0105794332692 0.02901128948 -158.212463469 258105.545853
0.0032623686335 0.020547408715 32.7054357012 -29.9676235324 -13.0548607141 0 -62.5418568102 0 -62.5068458626 62.5418568102 -90 -29.9676235324 49.4869960961 57.8563762062 121.171876993 -148.828123007 520.255336993 -0.0263285171138 -0.0111886090741 0.0286224046897 -156.585766461 276277.635873
0.0032623686335 0.0232386435 37.9430111429 -33.8233961505 -17.1468615601 0 -70.5527923523 0 -70.5133213755 70.5527923523 -90 -33.8233961505 53.4059307922 63.2191874231 122.325281084 -147.674718916 435.973631324 -0.0248509632398 -0.0123480700775 0.0277653315192 -153.23809268 311809.744871
0.0032623686335 0.025929878286 43.4819013091 -37.48987447 -21.9771052719 0 -78.4973464628 0 -78.4534618643 78.4973464628 -90 -37.48987447 56.5202411909 67.8275783497 123.538445476 -146.461554524 368.687971599 -0.0232464721071 -0.013408671431 0.0268519496493 -149.735971356 346598.378902
0.0032623686335 0.028621113072 49.323845169 -40.8860606502 -27.5385231724 0 -86.3679670189 0 -86.3197205714 86.3679670189 -90 -40.8860606502 58.8294438465 71.6463764715 124.785144988 -145.214855012 315.601850171 -0.0216616131425 -0.0143999855564 0.0260263123814 -146.146764997 382118.800647
0.0032623686335 0.031312347858 55.4590683561 -43.9355863411 -33.7927299602 0 -94.1571539445 0 -94.1046027741 94.1571539445 -90 -43.9355863411 60.3644239842 74.6650595653 126.038470308 -143.961529692 273.62876248 -0.020148708918 -0.0153318112591 0.0253328712795 -142.535574368 419180.23072
0.0032623686335 0.034003582644 61.8662789607 -46.5751775324 -40.6715876406 0 -101.85746871 0 -101.800675274 101.85746871 -90 -46.5751775324 61.1858810695 76.9001386343 127.271955421 -142.728044579 239.972934983 -0.0187058600035 -0.0161897104787 0.0247520316135 -138.963468496 457757.226519
0.0032623686335 0.036694817429 68.5137790954 -48.7612757289 -48.0828344466 0 -109.461544974 0 -109.400577022 109.461544974 -90 -48.7612757289 61.3787105271 78.3941410514 128.460965 -141.539035 212.430923042 -0.0173156013621 -0.016946380941 0.0242400447209 -135.484731302 497216.125374
0.0032623686335 0.039386052215 75.3617340589 -50.4731904866 -55.9190645191 0 -116.962100394 0 -116.897030947 116.962100394 -90 -50.4731904866 61.0430358745 79.2108499987 129.584009984 -140.415990016 189.396917558 -0.0159641682834 -0.0175720964369 0.0237512998409 -132.143925355 536527.443182
0.0032623686335 0.042077287001 82.3654476013 -51.7118127302 -64.0686337662 0 -124.351949691 0 -124.282856972 124.351949691 -90 -51.7118127302 60.2833159243 79.4271038963 130.623672002 -139.376327998 169.649928131 -0.0146388822067 -0.0180333815697 0.0232360421238 -128.973315306 574183.369584
0.0032623686335 0.044768521787 89.4790511538 -52.494733466 -72.4258347936 0 -131.624018947 0 -131.550986326 131.624018947 -90 -52.494733466 59.1981841538 79.1233329879 131.566875842 -138.433124158 152.234794605 -0.0133272655107 -0.0182921719062 0.0226398106 -125.991743776 608131.905846
0.0032623686335 0.047459756572 96.658790836 -52.850104708 -80.8977875051 0 -138.771361204 0 -138.694477104 138.771361204 -90 -52.850104708 57.8735736987 78.3758351655 132.404523617 -137.595476383 136.405982349 -0.0120180385235 -0.0183069434439 0.0219055457528 -123.205744651 635833.410574
0.0032623686335 0.050150991358 103.865204238 -52.8118071356 -89.406954517 0 -145.787173293 0 -145.706531113 145.787173293 -90 -52.8118071356 56.3802187763 77.2529669403 133.130815883 -136.869184117 121.546967222 -0.0106992614791 -0.0180278368054 0.0209688739426 -120.612657273 654089.338427
0.0032623686335 0.052842226144 111.063861873 -52.4174614846 -97.8898002247 0 -152.664813935 0 -152.580511914 152.664813935 -90 -52.4174614846 54.7750137106 75.8157534331 133.742687058 -136.257312942 107.17927838 -0.00936466014812 -0.0174054232341 0.0197689209542 -118.204837202 659304.165856
0.0032623686335 0.05553346093 118.224939431 -51.7085535071 -106.293723481 0 -159.397822979 0 -159.309964069 159.397822979 -90 -51.7085535071 53.1040994983 74.1208655334 134.239572912 -135.760427088 92.9522664697 -0.00801519216927 -0.0163937124581 0.0182514834743 -115.973356895 647616.99251
0.0032623686335 0.058224695716 125.322235773 -50.7309808522 -114.574233088 0 -165.979941744 0 -165.888633456 165.979941744 -90 -50.7309808522 51.4057086551 72.2234327531 134.623473843 -135.376526157 78.534984868 -0.00665075545029 -0.0149368117313 0.0163530468282 -113.910204581 614427.906326
0.0032623686335 0.060915930501 128.851856005 -50.1810518803 -118.678506994 0 -169.232509465 0 -172.310488541 169.232509465 -90 -50.1810518803 50.5540024709 71.2309434686 134.787594047 -135.212405953 71.2384839585 -0.00596475780317 -0.0140894646606 0.0153000757725 -112.91980804 591833.996538
0.0039248423602 0.017856173929 30.2711342192 -28.5225105185 -10.118879537 0 -59.0013764769 0 -54.8812161531 59.0013764769 -90 -28.5225105185 48.8824969399 56.595640995 120.266084527 -149.733915473 1208.64010358 -0.0706539235687 -0.0243425121297 0.0747422555279 -160.464267909 554626.275141
0.0039248423602 0.020547408715 32.8239600475 -30.5462556651 -11.9554917652 0 -63.0554310884 0 -63.0114106629 63.0554310884 -90 -30.5462556651 51.0999393233 59.53714396 120.844079299 -149.155920701 1104.90970068 -0.0687830321225 -0.0259992037508 0.0735774038571 -158.755562186 591049.497664
0.0039248423602 0.0232386435 38.0804315039 -34.5206915656 -16.0151524062 0 -71.1319476712 0 -71.0823162646 71.1319476712 -90 -34.5206915656 55.116795265 65.0389004036 122.037819358 -147.962180642 901.062181676 -0.0633957656971 -0.0285132892002 0.069557676549 -155.238224709 647295.449534
0.0039248423602 0.025929878286 43.6430140342 -38.3052115205 -20.8526609773 0 -79.1414523846 0 -79.086267314 79.1414523846 -90 -38.3052115205 58.2887914073 69.7531760485 123.293643547 -146.706356453 714.578890938 -0.0557061525432 -0.0295272017794 0.0630898471561 -151.557525318 673645.021996
0.0039248423602 0.028621113072 49.5149039926 -41.8120899548 -26.4612896338 0 -87.0763151756 0 -87.015640488 87.0763151756 -90 -41.8120899548 60.6150255418 73.6420443647 124.58409709 -145.41590291 562.074141047 -0.0477175039572 -0.0295444610497 0.0561607169807 -147.785549228 682608.433786
0.0039248423602 0.031312347858 55.6874068155 -44.9583787657 -32.8004129577 0 -94.9289566492 0 -94.8628631383 94.9289566492 -90 -44.9583787657 62.1285436914 76.6940282713 125.880935845 -144.119064155 448.029017655 -0.040788267741 -0.0292424308377 0.0502199039277 -143.992193296 689319.268325
0.0039248423602 0.034003582644 62.139729303 -47.6754668197 -39.7968937061 0 -102.691857549 0 -102.620422763 102.691857549 -90 -47.6754668197 62.8949638428 78.9270874375 127.156331969 -142.843668031 365.563579373 -0.0352003946641 -0.0289785456878 0.0456215341504 -140.243373132 701458.394786
0.0039248423602 0.036694817429 68.8399676938 -49.9165799636 -47.3512127674 0 -110.357569415 0 -110.28087765 110.357569415 -90 -49.9165799636 63.006356648 80.3876634157 128.384410976 -141.615589024 305.481014826 -0.030727704472 -0.0288257489968 0.0421551908964 -136.597860964 720338.63424
0.0039248423602 0.039386052215 75.7473762722 -51.6603560452 -55.3474334026 0 -117.918726456 0 -117.836868757 117.918726456 -90 -51.6603560452 62.5712930537 81.1454720411 129.542717481 -140.457282519 260.412436623 -0.0270578484464 -0.0287257190595 0.0394817831265 -133.103898506 744191.878214
0.0039248423602 0.042077287001 82.8158189857 -52.9092391997 -63.6654877701 0 -125.368058711 0 -125.281132837 125.368058711 -90 -52.9092391997 61.7025709408 81.2842021834 130.613245644 -139.386754356 225.312889956 -0.0239393010885 -0.0285860955549 0.0373019710769 -129.796114418 770169.714206
0.0039248423602 0.044768521787 89.997763795 -53.683650156 -72.1926601471 0 -132.698406499 0 -132.606516888 132.698406499 -90 -53.683650156 60.5057463522 80.8906562114 131.582709775 -138.417290225 196.898098646 -0.02119936646 -0.0283202699624 0.0353888021086 -126.694077162 795170.151032
0.0039248423602 0.047459756572 97.2479053061 -54.0147347903 -80.8312168372 0 -139.902736217 0 -139.805993916 139.902736217 -90 -54.0147347903 59.0715193797 80.0459315216 132.442064279 -137.557935721 172.982122393 -0.0187203732492 -0.0278493279232 0.0335669826799 -123.803498027 815850.270343
0.0039248423602 0.050150991358 104.525584028 -53.9387988377 -89.5009113733 0 -146.974157427 0 -146.872680028 146.974157427 -90 -53.9387988377 57.4732460537 78.821263333 133.185670361 -136.814329639 152.052974378 -0.0164206607506 -0.0270982575882 0.0316936733225 -121.119822521 828532.162987
0.0039248423602 0.052842226144 111.795588526 -53.4953087843 -98.1369823873 0 -153.905941261 0 -153.799852777 153.905941261 -90 -53.4953087843 55.7689588736 77.2791860095 133.810627854 -136.189372146 133.052037848 -0.0142449622056 -0.0259950377118 0.0296489331518 -118.633175252 829271.00741
0.0039248423602 0.05553346093 119.027628708 -52.727432371 -106.6863036 0 -160.691540029 0 -160.580970773 160.691540029 -90 -52.727432371 54.0052364293 75.4773951636 134.316520812 -135.683479188 115.220509376 -0.0121576211602 -0.0244693557068 0.0273284486057 -116.332653638 813842.972489
0.0039248423602 0.058224695716 126.195183228 -51.6829584912 -115.104036118 0 -167.324607984 0 -167.209694406 167.324607984 -90 -51.6829584912 52.2205718654 73.4722033627 134.705499052 -135.294500948 98.0628940737 -0.0101453489698 -0.0224702438876 0.0246584083979 -114.208777962 778280.929466
0.0039248423602 0.060915930501 129.759719848 -51.0978523425 -119.274835083 0 -170.602229327 0 -173.67990759 170.602229327 -90 -51.0978523425 51.3273942441 72.425790642 134.871194774 -135.128805226 89.6091908758 -0.00915803894389 -0.0213482722461 0.0232297570728 -113.189949148 755023.526506
0.0047198108322 0.017856173929 30.4423481601 -29.1288270219 -8.81240909489 0 -59.5843179479 0 -55.414231759 59.5843179479 -90 -29.1288270219 50.771908853 58.5348439359 119.847744074 -150.152255926 2028.75407601 -0.143060152329 -0.0422078675559 0.149198139194 -163.162888316 941269.966514
0.0047198108322 0.020547408715 33.0058302132 -31.2253795062 -10.6134947084 0 -63.6783275243 0 -63.6232185599 63.6783275243 -90 -31.2253795062 53.0648328159 61.5740919574 120.448331199 -149.551668801 1908.06353875 -0.143919856366 -0.0474742947021 0.151660522496 -161.362466219 1036805.06062
0.0047198108322 0.0232386435 38.2853752947 -35.3482833534 -14.6253850849 0 -71.8343970597 0 -71.7722600105 71.8343970597 -90 -35.3482833534 57.2090119747 67.2531431985 121.689278061 -148.310721939 1652.25978688 -0.141640625662 -0.056930294586 0.152770048607 -157.653990762 1204887.29734