TITLE = "Electromagnetic Field"
VARIABLES = X Y E ER EI EvR EvI EvR' EvI' Ev EvPhase EpR EpI Ep EpPhase EpToEvPhaseShift elConductivity Jr Ji J Jphase QJ
ZONE N=304, E=266, F=FEPOINT, ET=QUADRILATERAL
0.74660180906 0.053298500214 15.8898100971 -2.71702483115 -15.6557925698 0 -17.4044009077 0 -18.0377175744 17.4044009077 -90 -2.71702483115 1.74860833788 3.23107645412 147.23569397 -122.76430603 26.005748633 -0.000168393891851 -0.000970303918691 0.000984807695664 -99.8454806207 3283.04456885
0.74695519229 0.053522527218 15.904641505 -2.71254077205 -15.6716205875 0 -17.4194725281 0 -18.070252098 17.4194725281 -90 -2.71254077205 1.74785194058 3.22689745014 147.203857403 -122.796142597 25.2911403022 -0.000161316512253 -0.000931893357631 0.000945752838154 -99.8198395915 3198.62278132
0.74731181374 0.053738554579 15.9333363623 -2.70346041586 -15.7023075121 0 -17.4485436482 0 -18.0995961059 17.4485436482 -90 -2.70346041586 1.74623613603 3.2183911985 147.140478946 -122.859521054 23.8647188812 -0.000147475924661 -0.000856476455099 0.000869080669146 -99.7688419608 3029.13250537
0.74767152854 0.053946908517 16.0552625251 -2.69254778536 -15.8278698382 0 -17.5778969276 0 -18.1258924699 17.5778969276 -90 -2.69254778536 1.75002708933 3.21129629181 146.978029386 -123.021970614 20.3895843619 -0.00035250785369 -0.00207553072234 0.00210525318871 -99.654584962 2626.58571262
0.75560951178 0.052376805042 15.3660953595 -2.63932478454 -15.137724088 0 -16.8228459844 0 -16.765196968 16.8228459844 -90 -2.63932478454 1.6851218964 3.13142350756 147.450182001 -122.549817999 28.8795503999 -0.000177782691387 -0.00101924779624 0.00103463688579 -99.8919777079 3389.63213002
0.75598591033 0.052606921706 15.3806663771 -2.63491961694 -15.1532797961 0 -16.8376740701 0 -16.7969827474 16.8376740701 -90 -2.63491961694 1.68439427406 3.12731989881 147.417930877 -122.582069123 28.1701896249 -0.00017081284359 -0.000981816966821 0.000996565330295 -99.8658659717 3311.86557458
0.75636562405 0.052828942914 15.4088666434 -2.62599940832 -15.1834482165 0 -16.8662880868 0 -16.8257042865 16.8662880868 -90 -2.62599940832 1.68283987031 3.11896858394 147.353706919 -122.646293081 26.753369378 -0.000157162992343 -0.000908213691475 0.00092171200784 -99.8139314795 3155.58430461
0.75674851598 0.053043166388 15.5293884093 -2.61533826334 -15.3075667259 0 -16.9942136564 0 -16.8514879053 16.9942136564 -90 -2.61533826334 1.6866469305 3.11206077377 147.188710133 -122.811289867 23.2819758327 -0.000383752999994 -0.00224869332839 0.00228120421442 -99.6971917671 2784.9961214
0.76404279466 0.051513883572 14.3684357657 -2.49158159208 -14.1507533919 0 -15.7159382253 0 -15.6649519444 15.7159382253 -90 -2.49158159208 1.56518483341 2.94242898141 147.869356505 -122.130643495 34.4319222958 -0.000193271816751 -0.00109736013316 0.00111425048217 -99.9875047405 3540.51170912
0.76444137013 0.051749638484 14.382683709 -2.48736621305 -14.1659595168 0 -15.7304943526 0 -15.6960747927 15.7304943526 -90 -2.48736621305 1.56453483578 2.93851462124 147.836313632 -122.163686368 33.7331727923 -0.000186549017511 -0.00106201291172 0.0010782731725 -99.9604749633 3475.01249593
0.76484333959 0.051977208875 14.4102639075 -2.47882623717 -14.1954550269 0 -15.7585949314 0 -15.7242444962 15.7585949314 -90 -2.47882623717 1.56313990455 2.93054476837 147.770485819 -122.229514181 32.3366696314 -0.000173350330734 -0.000992322627662 0.00100735069813 -99.906716472 3343.15860817
0.76524857252 0.052196865869 14.5285295941 -2.46876646673 -14.3172298753 0 -15.884266631 0 -15.7495733786 15.884266631 -90 -2.46876646673 1.5670367557 2.92412851007 147.600705635 -122.399294365 28.887687747 -0.000437105468846 -0.00253846009702 0.00257581970049 -99.7851153551 3032.77994523
0.77194990163 0.050704801475 13.4979464492 -2.36317042344 -13.2894639384 0 -14.7518236227 0 -14.7065048643 14.7518236227 -90 -2.36317042344 1.46235968429 2.77905572196 148.255303072 -121.744696928 39.4121091374 -0.000202390489057 -0.00113792667846 0.00115578545007 -100.084570275 3580.7021698
0.7723697153 0.050945797867 13.5119105246 -2.35914638708 -13.3043594256 0 -14.7661398081 0 -14.7370499128 14.7661398081 -90 -2.35914638708 1.46178038248 2.77532994267 148.22170622 -121.77829378 38.7276971981 -0.000195973640184 -0.00110485904033 0.00112210533008 -100.056729276 3525.40883626
0.77279300298 0.051178526534 13.538947194 -2.3509896952 -13.333258066 0 -14.7937885966 0 -14.7647401323 14.7937885966 -90 -2.3509896952 1.46053053065 2.76773981563 148.154753019 -121.845246981 37.3596878666 -0.000183351124408 -0.00103952562394 0.00105557196777 -100.001359859 3413.96799847
0.77321963928 0.051403233743 13.6551347809 -2.341552883 -13.4528644139 0 -14.9173727206 0 -14.7896759096 14.9173727206 -90 -2.341552883 1.46450830669 2.76183726783 147.981313883 -122.018686117 33.9550903246 -0.000472273699089 -0.00271758360708 0.00275831663809 -99.8753356047 3154.09527105
0.77937800237 0.049944733928 12.7330536307 -2.25074266173 -12.5325453327 0 -13.9059833561 0 -13.8654538768 13.9059833561 -90 -2.25074266173 1.37343802349 2.63670944376 148.612124441 -121.387875559 43.8987241961 -0.000207006560469 -0.00115247936669 0.00117092331988 -100.182704574 3551.77734886
0.7798180441 0.050190625865 12.746772059 -2.24690936159 -12.5471684635 0 -13.9200924998 0 -13.8955033634 13.9200924998 -90 -2.24690936159 1.37292403625 2.63317042528 148.57817342 -121.42182658 43.2272081947 -0.0002009038228 -0.00112161940688 0.00113947080596 -100.154148045 3504.7044947
0.78026164043 0.050428171927 12.7733400514 -2.23913472779 -12.5755452208 0 -13.9473532866 0 -13.9227855386 13.9473532866 -90 -2.23913472779 1.37180806579 2.62595609121 148.510497489 -121.489502511 41.8854760683 -0.000188881022589 -0.00106054598183 0.00107723484781 -100.097358675 3409.76377374
0.78070866992 0.050657595111 12.8876197249 -2.2303290547 -12.6931523445 0 -14.0690130693 0 -13.9473905249 14.0690130693 -90 -2.2303290547 1.37586072478 2.62057873714 148.334348501 -121.665651499 38.5370907129 -0.000494001396231 -0.0028161841151 0.00285918499376 -99.9673009562 3191.80415163
0.78637203028 0.049229084586 12.0563357145 -2.15162757284 -11.8627830104 0 -13.1586883105 0 -13.1221825039 13.1586883105 -90 -2.15162757284 1.29590530015 2.5117564911 148.943549608 -121.056450392 47.9912488406 -0.000208630796483 -0.00115013649242 0.00116890623474 -100.281644573 3482.81133357
0.78683124181 0.04947957262 12.0698450257 -2.14798315093 -11.877170567 0 -13.1726229896 0 -13.1518145598 13.1726229896 -90 -2.14798315093 1.29545242264 2.5084018099 148.909413097 -121.090586903 47.3264805807 -0.00020281264328 -0.0011212237448 0.00113941957229 -100.252458189 3442.05046227
0.78729408847 0.049721640955 12.0960160666 -2.14058684424 -11.9050976813 0 -13.1995592436 0 -13.178757665 13.1995592436 -90 -2.14058684424 1.29446156233 2.50155817981 148.841354563 -121.158645437 45.9991298952 -0.000191337279042 -0.00106393014626 0.00108099881774 -100.19441978 3359.81796792
0.78776045176 0.049955490765 12.208547714 -2.13241148167 -12.0208658662 0 -13.319450803 0 -13.2030930424 13.319450803 -90 -2.13241148167 1.29858493678 2.49670996457 148.663295871 -121.336704129 42.6956810639 -0.000506045518115 -0.00285777511369 0.00290223529899 -100.060672072 3175.4756027
0.79297387511 0.048553568258 11.4536790593 -2.06368270391 -11.2662273223 0 -12.4940046943 0 -12.4608604022 12.4940046943 -90 -2.06368270391 1.22777737203 2.40130438316 149.25291458 -120.74708542 51.7673072764 -0.000208309749527 -0.0011371246522 0.00115604776821 -100.381277861 3391.78538892
0.79345116801 0.048808394844 11.4670137436 -2.06022469515 -11.2804141428 0 -12.5077964415 0 -12.4901484781 12.5077964415 -90 -2.06022469515 1.22738229878 2.39813141222 149.218736524 -120.781263476 51.107701132 -0.000202760540656 -0.00110999760722 0.00112836511558 -100.351538606 3356.18808946
0.79393217593 0.049054731592 11.4928557028 -2.05320175274 -11.3079601926 0 -12.534469825 0 -12.5168181668 12.534469825 -90 -2.05320175274 1.2265096324 2.39165301474 149.15058565 -120.84941435 49.7911881217 -0.000191802784717 -0.00105617135309 0.00107344649563 -100.292404587 3284.32860229
0.79441678248 0.049292759156 11.6037878723 -2.04565027274 -11.4220392107 0 -12.6527400526 0 -12.5409429075 12.6527400526 -90 -2.04565027274 1.230700842 2.38733294757 148.971295348 -121.028704652 46.5090179742 -0.00051144298875 -0.00286097805662 0.00290633424993 -100.155268934 3126.21650748
0.7992218585 0.047914264624 10.913617086 -1.9851804643 -10.7315425126 0 -11.8990210814 0 -11.8686673734 11.8990210814 -90 -1.9851804643 1.16747856888 2.30303703209 149.5431691 -120.4568309 55.2765284115 -0.000206709844508 -0.00111736328629 0.00113632331168 -100.481595603 3288.99930411
0.79971612743 0.048173209507 10.9268094651 -1.98190612675 -10.7455613156 0 -11.9126999791 0 -11.8976800565 11.9126999791 -90 -1.98190612675 1.16713866349 2.30004311134 149.509073424 -120.490926576 54.6216995417 -0.000201414844568 -0.00109188070299 0.00111030297763 -100.451372583 3257.74559814
0.80021419016 0.048423597531 10.9523860669 -1.97525103866 -10.7727908289 0 -11.9391694901 0 -11.9241382399 11.9391694901 -90 -1.97525103866 1.16637866115 2.29392444743 149.441080273 -120.558919727 53.3153614975 -0.000190948119736 -0.00104125726831 0.00105862128261 -100.391280625 3194.62091589
0.80071593162 0.048665590011 11.0618558411 -1.9683138391 -10.8853194617 0 -12.0559551858 0 -11.9481085086 12.0559551858 -90 -1.9683138391 1.17063572403 2.2901285269 149.261138236 -120.738861764 50.050314677 -0.000512512467279 -0.00283975764054 0.00288563720057 -100.251022904 3058.26581025
0.80464426727 0.047035957963 10.1634090292 -1.88684334406 -9.98672645517 0 -11.0751057102 0 -11.3038190714 11.0751057102 -90 -1.88684334406 1.088379255 2.17824406524 150.022557706 -119.977442294 61.5428395985 -0.000213456162097 -0.00112978552657 0.00114977339906 -100.699068214 3178.53021084
0.80515040438 0.047307651996 10.3385114065 -1.9053752269 -10.1614077723 0 -11.2666527844 0 -11.3351905883 11.2666527844 -90 -1.9053752269 1.10524501214 2.20273759703 149.885833814 -120.114166186 59.5634301479 -0.000207374110712 -0.00110572890186 0.00112500767372 -100.621674933 3180.36340473
0.80566053644 0.047570527678 10.4398916892 -1.911626845 -10.263376868 0 -11.3768399885 0 -11.36399164 11.3768399885 -90 -1.911626845 1.11346312046 2.21227155445 149.782980888 -120.217019112 57.9142425723 -0.000199246938261 -0.0010696054961 0.00108800575625 -100.552002022 3153.68997096
0.80617453952 0.047824782108 10.4652624714 -1.9053337519 -10.2903502578 0 -11.4031614916 0 -11.3902963353 11.4031614916 -90 -1.9053337519 1.11281123374 2.20650708226 149.715361509 -120.284638491 56.616172224 -0.000189234920318 -0.00102189082307 0.00103926504241 -100.491074539 3097.92087112
0.80669229919 0.048070558324 10.5733958934 -1.89899917993 -10.4014565684 0 -11.5185892759 0 -11.4141651778 11.5185892759 -90 -1.89899917993 1.11713270753 2.20322915192 149.53526462 -120.46473538 53.3652284128 -0.000510673807038 -0.00280261469357 0.00284876227009 -100.347926999 2979.84861095
0.81026904134 0.046455120837 9.95703610079 -1.85699370796 -9.78233419795 0 -10.8482446544 0 -10.8207955627 10.8482446544 -90 -1.85699370796 1.06591045641 2.14117090773 150.146482605 -119.853517395 63.0279873094 -0.000211715047606 -0.00111523607895 0.00113515453242 -100.749724522 3122.61426812
0.81078985256 0.046730626428 9.97116191345 -1.85411418103 -9.79725567204 0 -10.8630032199 0 -10.8519543065 10.8630032199 -90 -1.85411418103 1.06574754786 2.13859324799 150.111820704 -119.888179296 62.3587727887 -0.000206630107059 -0.00109172264157 0.00111110562748 -100.717519701 3098.10523143
0.81131473357 0.04699727376 9.99864086072 -1.84824597721 -9.82632672327 0 -10.8916714978 0 -10.8806028069 10.8916714978 -90 -1.84824597721 1.06534477457 2.13330645524 150.042658404 -119.957341596 61.024834678 -0.000196573077436 -0.00104497472754 0.00106330352609 -100.653487397 3048.50108557
0.81184356085 0.047255237651 10.0238612656 -1.84230868632 -9.85310037959 0 -10.9178974879 0 -10.9068081215 10.9178974879 -90 -1.84230868632 1.0647971083 2.12789046336 149.975599456 -120.024400544 59.7337629229 -0.000186980840457 -0.000999901994705 0.00101723494254 -100.591831763 2999.01230056
0.81237622005 0.047504643832 10.1307740725 -1.83656374647 -9.96290234234 0 -11.0320841806 0 -10.930625321 11.0320841806 -90 -1.83656374647 1.06918183828 2.12512277411 149.795774061 -120.204225939 56.492547207 -0.00050688961554 -0.00275524731889 0.00280148789867 -100.445995792 2896.35977931
0.81563198806 0.045901330113 9.55545800008 -1.79904000517 -9.38457020381 0 -10.4069549724 0 -10.3810464307 10.4069549724 -90 -1.79904000517 1.02238476861 2.0692593706 150.392645528 -119.607354472 65.9829971549 -0.000208087613735 -0.00108544099229 0.0011052074932 -100.853091369 3010.91604146
0.81616636371 0.046180511451 9.5695026269 -1.79633949891 -9.39938509415 0 -10.421655879 0 -10.4120520225 10.421655879 -90 -1.79633949891 1.02227078484 2.06685595299 150.358364747 -119.641635253 65.3161568349 -0.000203222842837 -0.00106325788405 0.00108250551614 -100.82055606 2989.1410159
0.81670488228 0.046450795357 9.59683732521 -1.79082976386 -9.42826140376 0 -10.4502290796 0 -10.4406025468 10.4502290796 -90 -1.79082976386 1.02196767587 2.06191888621 150.289961484 -119.710038516 63.9876080468 -0.000193592390533 -0.00101910837008 0.00103733363912 -100.755869766 2945.04353686
0.81724742002 0.046712335487 9.62195883553 -1.78524157785 -9.45488785929 0 -10.476408565 0 -10.4667587233 10.476408565 -90 -1.78524157785 1.02152070573 2.05684522962 150.223622855 -119.776377145 62.702718409 -0.000184387951323 -0.000976441782087 0.000993699419312 -100.693577869 2900.98364611
0.81779386219 0.046965241143 9.72775733797 -1.78007228341 -9.56349418247 0 -10.5894618194 0 -10.4905707369 10.5894618194 -90 -1.78007228341 1.02596763691 2.05457872697 150.04443397 -119.95556603 59.467828669 -0.000501811444469 -0.00270147611145 0.00274768946221 -100.545226553 2811.48186309
0.82075504709 0.045372320411 9.18817660639 -1.74629429849 -9.02069705997 0 -10.003640739 0 -9.97895030698 10.003640739 -90 -1.74629429849 0.98294367901 2.00393068551 150.627753878 -119.372246122 68.8208575848 -0.000204313542746 -0.0010553807544 0.00107497605587 -100.957221188 2903.832643
0.82130188337 0.045655061775 9.20216582846 -1.74376892074 -9.03543177869 0 -10.0183088901 0 -10.0098573908 10.0183088901 -90 -1.74376892074 0.982877111385 2.00169804612 150.593919812 -119.406080188 68.1562654422 -0.000199652533055 -0.00103441216479 0.00105350412949 -100.924394461 2884.45011687
0.82185293354 0.045928867078 9.22940734555 -1.73860976568 -9.06416569689 0 -10.0468361733 0 -10.0383601693 10.0468361733 -90 -1.73860976568 0.982670476382 1.99710359163 150.526407667 -119.473592333 66.8327389307 -0.000190416995109 -0.00099263607919 0.0010107354609 -100.859131143 2845.16758085
0.8224080731 0.046193869839 9.254477611 -1.73336314179 -9.09069381065 0 -10.0730146066 0 -10.0645136331 10.0730146066 -90 -1.73336314179 0.982320795945 1.99236529404 150.460922954 -119.539077046 65.5535897107 -0.000181572469359 -0.000952173006705 0.000969331227558 -100.796278128 2805.85319224
0.82296718655 0.046450163734 9.35925961698 -1.7287545366 -9.19820484669 0 -10.1850336656 0 -10.0883635456 10.1850336656 -90 -1.7287545366 0.986828818857 1.99058963311 150.282679813 -119.717320187 62.3220728389 -0.000495829675075 -0.00264360302975 0.00268970135194 -100.645558289 2727.66907812
0.82565594616 0.044866261148 8.85106839303 -1.69812205082 -8.68664074047 0 -9.63369021059 0 -9.60993705318 9.63369021059 -90 -1.69812205082 0.947049470118 1.94435984133 150.853028638 -119.146971362 71.5677918348 -0.000200429032199 -0.00102526403941 0.00104467174984 -101.06202461 2802.3600195
0.82621414718 0.045152462748 8.86502589203 -1.69576734692 -8.70131970303 0 -9.64834845478 0 -9.64079551915 9.64834845478 -90 -1.69576734692 0.947028751747 1.94229392505 150.819693855 -119.180306145 70.9054189518 -0.000195958130327 -0.00100541298217 0.00102433202116 -101.028936584 2785.09068601
0.82677663051 0.045429690063 8.8922211663 -1.69094972226 -8.72995966188 0 -9.67687495432 0 -9.66929654655 9.67687495432 -90 -1.69094972226 0.946915292437 1.93803376239 150.753178289 -119.246821711 69.5868929769 -0.000187091560056 -0.000965823964058 0.000983778577849 -100.963155007 2750.06320838
0.8273432705 0.045698057417 8.91728408469 -1.68603584535 -8.75643477111 0 -9.70309416324 0 -9.69548991768 9.70309416324 -90 -1.68603584535 0.946659392131 1.93362255641 150.688653709 -119.311346291 68.3135921882 -0.000178584683803 -0.000927399408678 0.000944438005927 -100.899797491 2714.949285
0.82791395054 0.045957643605 9.02113979492 -1.68197188897 -8.86294341147 0 -9.81417064532 0 -9.71941737822 9.81417064532 -90 -1.68197188897 0.951227233851 1.93232601382 150.511612989 -119.488387011 65.0829415358 -0.000489137673328 -0.00258282722224 0.00262873757258 -100.746831903 2646.58944223
0.83034823413 0.044381753118 8.54079177911 -1.65399496357 -8.37910276801 0 -9.29336668714 0 -9.27030572925 9.29336668714 -90 -1.65399496357 0.914263919124 1.88986509289 151.069354364 -118.930645636 74.2476403877 -0.000196418467637 -0.00099504035457 0.00101424178161 -101.167276767 2707.13898132
0.83091671415 0.044671326952 8.55473918923 -1.65180567681 -8.39374848466 0 -9.30803581725 0 -9.30116084801 9.30803581725 -90 -1.65180567681 0.914287332589 1.88796100931 151.036557291 -118.963442709 73.5876050474 -0.00019212720355 -0.000976229173264 0.000994955997673 -101.133947622 2691.75382971
0.83148954201 0.044951888589 8.58193110909 -1.64731888504 -8.42233915795 0 -9.33660261169 0 -9.32970191922 9.33660261169 -90 -1.64731888504 0.914263453746 1.88402511315 150.971114832 -119.028885168 72.2743461385 -0.000183609796777 -0.000938678303432 0.000956467758153 -101.067686279 2660.52233878
0.83206659056 0.045223534041 8.60702683566 -1.64272718348 -8.44880316763 0 -9.36290069719 0 -9.35597397316 9.36290069719 -90 -1.64272718348 0.914097529561 1.87993094161 150.907626715 -119.092373285 71.0072272301 -0.000175423677125 -0.000902160418071 0.000919058124931 -101.003860151 2629.16001193
0.83264774182 0.045486327914 8.71003966794 -1.63919054721 -8.55439567178 0 -9.47311935476 0 -9.38001508586 9.47311935476 -90 -1.63919054721 0.91872368298 1.87910026106 150.731993748 -119.268006252 67.7753868712 -0.000481775925444 -0.00251953340026 0.00256518331064 -100.848750114 2569.40026029
0.83484134236 0.043917822139 8.25465603629 -1.61346957881 -8.09543110506 0 -8.97966037262 0 -8.95707807992 8.97966037262 -90 -1.61346957881 0.884229267555 1.8398793932 151.277274507 -118.722725493 76.8819100036 -0.000192224934976 -0.00096446663665 0.000983436390351 -101.272579378 2618.58347952
0.83541902887 0.044210687824 8.2686129486 -1.61143941205 -8.11006422421 0 -8.99435909459 0 -8.98797054451 8.99435909459 -90 -1.61143941205 0.884294870378 1.83813117978 151.245037864 -118.754962136 76.224541907 -0.000188106389955 -0.000946637367225 0.000965146324441 -101.239018333 2604.89592121
0.83600112552 0.044494503672 8.29584033707 -1.60727062647 -8.13864659061 0 -9.0230031187 0 -9.01658921786 9.0230031187 -90 -1.60727062647 0.884356528085 1.83450734068 151.180712868 -118.819287132 74.9171471541 -0.000179925016488 -0.000911012895763 0.000928611062941 -101.172293354 2577.08284437
0.83658750341 0.044769348214 8.32100521 -1.60298830093 -8.16513797593 0 -9.04941430652 0 -9.04297477727 9.04941430652 -90 -1.60298830093 0.884276330588 1.83071788475 151.118304296 -118.881695704 73.6567634504 -0.000172048598747 -0.000876302585007 0.000893032944265 -101.108011592 2549.09871156
0.83717804302 0.045035272532 8.42325252654 -1.59996019383 -8.26989468868 0 -9.1588537233 0 -9.06716193565 9.1588537233 -90 -1.59996019383 0.888959034622 1.83033816566 150.94423332 -119.05576668 70.4214493282 -0.000473659072684 -0.00245347378892 0.00249877870295 -100.950840518 2496.90454259
0.83914068682 0.043473908498 7.99051345981 -1.57617015171 -7.83351390585 0 -8.69016716359 0 -8.66787866781 8.69016716359 -90 -1.57617015171 0.85665325774 1.79392768167 151.476986389 -118.523013611 79.4896509072 -0.000187758736677 -0.000933159127828 0.000951861361518 -101.377327592 2536.96185395
0.83972652502 0.043769989055 8.0044973796 -1.57429155832 -7.84815320437 0 -8.70491203532 0 -8.69884454825 8.70491203532 -90 -1.57429155832 0.85675883095 1.79232810169 151.445315396 -118.554684604 78.8353261894 -0.000183809209497 -0.000916270404821 0.000934525714618 -101.34353209 2524.81339744
0.84031683216 0.044056982415 8.03179488563 -1.57042540592 -7.87676450449 0 -8.73366593378 0 -8.72757402791 8.73366593378 -90 -1.57042540592 0.856901429285 1.78900152211 151.382116398 -118.617883602 77.5345931257 -0.000175957319487 -0.00088249452757 0.000899865822726 -101.276335586 2500.10150579
0.84091147741 0.044334950435 8.05706126248 -1.56643703044 -7.90331820982 0 -8.76022037369 0 -8.754103788 8.76022037369 -90 -1.56643703044 0.85690216387 1.78550181353 151.320793518 -118.679206482 76.2817950729 -0.000168385939277 -0.000849525693929 0.000866053443208 -101.211586582 2475.18513169
0.84151033956 0.044603931305 8.15861498281 -1.56389708674 -8.00731414512 0 -8.86895357827 0 -8.77846545123 8.86895357827 -90 -1.56389708674 0.861639433152 1.78555646999 151.148387406 -118.851612594 73.0404907753 -0.000464603784046 -0.00238394142758 0.00242879422834 -101.05242483 2429.67368956
0.8432478262 0.043049850588 7.74666872757 -1.54177560607 -7.59168995597 0 -8.42298737141 0 -8.40083493743 8.42298737141 -90 -1.54177560607 0.831297415438 1.75160942935 151.668344184 -118.331655816 82.0873138908 -0.000182905415117 -0.000900637911844 0.000919023239141 -101.48068959 2462.45038855
0.84384078542 0.043349068194 7.76069498773 -1.54003967106 -7.60635226786 0 -8.43779271445 0 -8.43190555518 8.43779271445 -90 -1.54003967106 0.831440446596 1.75014986351 151.63722516 -118.36277484 81.4363780648 -0.000179124318647 -0.000884663261783 0.000902615948457 -101.446645177 2451.7028196
0.8444382686 0.043639161585 7.78809288911 -1.53645800534 -7.63502583542 0 -8.46668464158 0 -8.46077450869 8.46668464158 -90 -1.53645800534 0.831658806162 1.74710295116 151.575122102 -118.424877898 80.143018719 -0.000171601452531 -0.000852687261047 0.000869783578346 -101.37894505 2429.8147199
0.84504014291 0.043920176733 7.8134889015 -1.53274533538 -7.66167305096 0 -8.49340816062 0 -8.48747480309 8.49340816062 -90 -1.53274533538 0.831735109666 1.74387519905 151.514851492 -118.485148508 78.8985612464 -0.000164336158877 -0.000821421027799 0.000837699017157 -101.313692548 2407.69398922
0.84564628535 0.044192139565 7.91441599999 -1.53067174146 -7.76497831132 0 -8.60150314719 0 -8.51203521919 8.60150314719 -90 -1.53067174146 0.83652483587 1.74434615562 151.344163141 -118.655836859 75.6484973969 -0.000454348491308 -0.00230988688645 0.0023541489786 -101.152604663 2368.10460002
0.8471607012 0.042645860196 7.52180066895 -1.51001039239 -7.3686709332 0 -8.17663888473 0 -8.15449163387 8.17663888473 -90 -1.51001039239 0.807967951525 1.71258596067 151.850877003 -118.149122997 84.6875783304 -0.000177532359729 -0.000866359309333 0.000884362357963 -101.58160724 2395.14052359
0.84775978332 0.042948131943 7.5358823077 -1.50840685047 -7.38337101535 0 -8.1915166767 0 -8.1856933822 8.1915166767 -90 -1.50840685047 0.808145661346 1.71125643833 151.820276888 -118.179723112 84.0403284178 -0.000173922197555 -0.000851285975726 0.000868871443465 -101.547288591 2385.67134171
0.84836344047 0.043241242918 7.56340624254 -1.50508880882 -7.41213598052 0 -8.22057005852 0 -8.21472570793 8.22057005852 -90 -1.50508880882 0.808434078003 1.7084688896 151.759200284 -118.240799716 82.7548778461 -0.000166733860164 -0.000821087481942 0.000837845804394 -101.479030756 2366.3587059
0.84897153778 0.043525223997 7.58895548521 -1.50163088755 -7.4389037942 0 -8.24748388373 0 -8.24161823496 8.24748388373 -90 -1.50163088755 0.808580089528 1.70549261162 151.699908409 -118.300091591 81.5192317944 -0.000159781185624 -0.000791509014953 0.000807475839359 -101.413216316 2346.78668642
0.84958395041 0.043800089468 7.68931837611 -1.5000007731 -7.5415838287 0 -8.35500403604 0 -8.26639712904 8.35500403604 -90 -1.5000007731 0.813420207339 1.70636075506 151.530944638 -118.469055362 78.2567237976 -0.00044257046079 -0.00223000668172 0.00227350064423 -101.250270771 2312.43706387
0.85087398624 0.04226248616 7.41162613534 -1.49442133447 -7.25940127318 0 -8.05594678158 0 -7.92773499584 8.05594678158 -90 -1.49442133447 0.796545508399 1.69345205774 151.941818855 -118.058181145 86.0191282406 -0.000174630688195 -0.000848297739719 0.000866085984456 -101.632412827 2362.6100629
0.85147823631 0.042567719939 7.36696820526 -1.483413462 -7.21607086603 0 -8.00631172235 0 -7.95908912697 8.00631172235 -90 -1.483413462 0.790240856319 1.68077369011 151.955595154 -118.044404846 86.0034112157 -0.000168015484485 -0.000817312289114 0.000834403328302 -101.61687506 2333.49584516
0.8520871084 0.04286375702 7.35671103306 -1.47607910454 -7.20710291096 0 -7.99417354537 0 -7.98830369888 7.99417354537 -90 -1.47607910454 0.787070634418 1.67281097639 151.933540937 -118.066459063 85.3771081603 -0.000161220260533 -0.000787156080157 0.000803496936176 -101.575314844 2309.76209069
0.85270046558 0.043150613988 7.38243221622 -1.47285275867 -7.23401384597 0 -8.02129402112 0 -8.0154052307 8.02129402112 -90 -1.47285275867 0.787280175153 1.67006352297 151.875116864 -118.124883136 84.1504047287 -0.000154592184555 -0.000759272724734 0.000774851215948 -101.508863817 2292.51073581
0.85331818121 0.043428294122 7.48228904289 -1.47164285781 -7.3361295703 0 -8.12829844478 0 -8.04041748199 8.12829844478 -90 -1.47164285781 0.792168874476 1.67130940682 151.707845761 -118.292154239 80.8706810176 -0.000428912412758 -0.00214286500123 0.00218537005574 -101.34414499 2262.77565639
0.85498809877 0.042208654364 7.24207702404 -1.4632909852 -7.09270464032 0 -7.86913408199 0 -7.75124588547 7.86913408199 -90 -1.4632909852 0.776429441669 1.65652141105 152.049357065 -117.950642935 87.3412754507 -0.000161441563726 -0.000782521958899 0.000799001874001 -101.657099984 2290.42361632
0.85560128226 0.042507513257 7.25529286315 -1.46178890004 -7.10650611803 0 -7.883088572 0 -7.78065631097 7.883088572 -90 -1.46178890004 0.776582453974 1.65526669129 152.020285956 -117.979714044 86.7253956157 -0.000158203871663 -0.000769064698767 0.000785168257645 -101.623523026 2282.52816982
0.85621899165 0.042797143499 7.28110258829 -1.45867445938 -7.13349187703 0 -7.91031440807 0 -7.80797841917 7.91031440807 -90 -1.45867445938 0.776822531042 1.6526297535 151.962276575 -118.037723425 85.5033046949 -0.000151746016897 -0.000742054747839 0.000757411572505 -101.556726091 2266.40804293
0.85684109853 0.043077538012 7.38071724979 -1.45767438334 -7.23533621642 0 -8.01707222177 0 -7.83323376375 8.01707222177 -90 -1.45767438334 0.78173600535 1.65406477578 151.795858446 -118.204141554 82.2133325903 -0.000421363147502 -0.00209605954284 0.00213799330775 -101.391121536 2238.88378194
0.74767325751 0.054795863078 16.2167707519 -2.68697509207 -15.9925976098 0 -17.7510724925 0 -18.399506102 17.7510724925 -90 -2.68697509207 1.75847488278 3.21125069982 146.797529242 -123.202470758 16.6938658038 -0.000356834607607 -0.00212071339302 0.00215052721625 -99.5381049291 2189.3104768
0.74767504604 0.055674054178 16.4776043769 -2.67953581626 -16.2582556537 0 -18.0309728301 0 -18.6819858411 18.0309728301 -90 -2.67953581626 1.77271717641 3.21286540403 146.512365771 -123.487634229 11.1928012753 -0.000246515787347 -0.00149255050083 0.00151277306888 -99.3595472809 1513.79951344
0.74767689585 0.056582339127 16.7469471614 -2.67209543143 -16.5323766193 0 -18.3198631773 0 -18.9735417444 18.3198631773 -90 -2.67209543143 1.78748655797 3.21485165553 146.219680495 -123.780319505 6.52230303253 -0.000147970120027 -0.000912844922164 0.000924760994963 -99.1819271344 910.036232418
0.74767880878 0.057521618121 17.0250024228 -2.6648314506 -16.8151332233 0 -18.6179580218 0 -19.2743916557 18.6179580218 -90 -2.6648314506 1.80282479854 3.21738646461 145.920737054 -124.079262946 3.36081297088 -7.8586045453e-05 -0.000494283507192 0.000500492240652 -99.0059639733 484.345571666
0.74768078677 0.058492839903 17.3119805654 -2.65788423364 -17.106713396 0 -18.9254804624 0 -19.5847624487 18.9254804624 -90 -2.65788423364 1.81876706634 3.22061118802 145.616588437 -124.383411563 1.68625303646 -4.06721268411e-05 -0.000260985384879 0.000264135834157 -98.8322062969 251.349720067
0.74768283186 0.059497008474 17.6081007412 -2.65134407393 -17.4073233219 0 -19.2426636347 0 -19.9048915295 19.2426636347 -90 -2.65134407393 1.83534031284 3.2246202696 145.307956112 -124.692043888 0.90109390192 -2.2426697259e-05 -0.000146855324453 0.000148558031785 -98.6609989332 139.034079614
0.74768494622 0.0605351911 17.9135927805 -2.64526681424 -17.7171862383 0 -19.5697524358 0 -20.2350286605 19.5697524358 -90 -2.64526681424 1.85256619751 3.22947620662 144.995326429 -125.004673571 0.519594354624 -1.33425840269e-05 -8.91525053531e-05 9.01454948773e-05 -98.4925475924 83.0083842618
0.74768713217 0.061608527841 18.0660995534 -2.64239574594 -17.8718129409 0 -19.7330094106 0 -20.5754381644 19.7330094106 -90 -2.64239574594 1.86119646965 3.2320748099 144.840685803 -125.159314197 0.389995583854 -1.02071325343e-05 -6.90358223582e-05 6.97863190264e-05 -98.4104037725 63.6441501698
0.75674996046 0.053921256199 15.6893392534 -2.60993992239 -15.470708739 0 -17.1657519847 0 -17.119878823 17.1657519847 -90 -2.60993992239 1.69504324569 3.11209725484 147.004885226 -122.995114774 19.5351715862 -0.000396581234407 -0.00234640497156 0.00237968694494 -99.5778750092 2377.22464276
0.75675145459 0.054829526177 15.947759425 -2.60270407286 -15.7339192893 0 -17.4431053545 0 -17.3969609846 17.4431053545 -90 -2.60270407286 1.70918606521 3.11377161461 146.713919054 -123.286080946 13.8104998736 -0.000288303918821 -0.00173839329798 0.001762140523 -99.3947695831 1729.5879043