TITLE = "Electromagnetic Field"
VARIABLES = X Y E ER EI EvR EvI EvR' EvI' Ev EvPhase EpR EpI Ep EpPhase EpToEvPhaseShift elConductivity Jr Ji J Jphase QJ
ZONE N=311, E=273, F=FEPOINT, ET=QUADRILATERAL
0.88071465832 0.021544068317 3.2187586825 -0.819375631759 -3.1127208404 0 -3.49361197242 0 -3.49441804407 3.49361197242 -90 -0.819375631759 0.38089113202 0.903578707347 155.068387923 -114.931612077 37.4719836818 -3.05017351792e-06 -1.15872846447e-05 1.19820166886e-05 -104.747669671 194.112509568
0.8808488377 0.021348730333 3.20579758539 -0.815841007335 -3.10024862503 0 -3.47952142128 0 -3.46055848185 3.47952142128 -90 -0.815841007335 0.379272796243 0.899691282516 155.066950933 -114.933049067 30.6347665235 -2.34443121622e-06 -8.90799989225e-06 9.21134193815e-06 -104.743301331 157.765433394
0.88096065386 0.021185948679 3.17932372497 -0.808620362128 -3.07477355373 0 -3.45074059227 0 -3.43237318001 3.45074059227 -90 -0.808620362128 0.375967038533 0.89175002358 155.063980652 -114.936019348 16.0620776367 -1.02508309078e-06 -3.8973118672e-06 4.02986788709e-06 -104.734300754 81.4409588201
0.88105383399 0.021050297301 3.15728482565 -0.802608928221 -3.05356616808 0 -3.42678121573 0 -3.40890694907 3.42678121573 -90 -0.802608928221 0.37321504765 0.885138725715 155.06145725 -114.93854275 5.45439803076 -2.90499702285e-07 -1.10504649907e-06 1.14259259767e-06 -104.726684826 27.2887771099
0.88113148409 0.020937254486 3.13893482937 -0.79760557232 -3.03590796785 0 -3.40683220796 0 -3.3893666972 3.40683220796 -90 -0.79760557232 0.37092424011 0.87963597079 155.059346041 -114.940653959 1.28292737273 -5.56300178655e-08 -2.11720059443e-07 2.18906561189e-07 -104.720297093 6.33618164182
0.88119619251 0.02084305214 3.12365411931 -0.793441019964 -3.02120280481 0 -3.39021995089 0 -3.37309352668 3.39021995089 -90 -0.793441019964 0.369017146075 0.875055601893 155.057588324 -114.942411676 0.453683147133 -1.60802720474e-08 -6.12245616793e-08 6.33010434905e-08 -104.714956722 2.21699992029
0.8812501162 0.020764550185 3.11092780884 -0.789974059976 -3.00895543412 0 -3.37638468622 0 -3.35953975303 3.37638468622 -90 -0.789974059976 0.367429252094 0.871242372035 155.056125842 -114.943874158 0.203645908752 -5.94585465883e-09 -2.2646012204e-08 2.34135656591e-08 -104.710495956 0.986660839381
0.8812950526 0.020699131889 3.10032784258 -0.787087378654 -2.9987541049 0 -3.36486105542 0 -3.34824994222 3.36486105542 -90 -0.787087378654 0.36610695052 0.868067302071 155.054909009 -114.945090991 0.0979677128511 -2.36592067373e-09 -9.01357544898e-09 9.3189121181e-09 -104.706771703 0.471317489939
0.88133249961 0.020644616643 3.09149821626 -0.784683521468 -2.99025634129 0 -3.3552620308 0 -3.33884523855 3.3552620308 -90 -0.784683521468 0.36500568951 0.865423238817 155.053896433 -114.946103567 0.0472035569801 -9.45551985276e-10 -3.60314124322e-09 3.72514367261e-09 -104.703663428 0.225771282787
0.88136370544 0.02059918727 3.08715312061 -0.783500758534 -2.98607450535 0 -3.35053831142 0 -3.33101039633 3.35053831142 -90 -0.783500758534 0.364463806066 0.864122274077 155.053398425 -114.946601575 0.0292772434962 -5.10842942098e-10 -1.94692228313e-09 2.01282559802e-09 -104.702132276 0.139513595222
0.88106204181 0.021781819224 3.23365414623 -0.821681954434 -3.12751587776 0 -3.50967004008 0 -3.52676684391 3.50967004008 -90 -0.821681954434 0.382154162314 0.906202553417 155.057473042 -114.942526958 36.9918426622 -3.01936764306e-06 -1.14921397996e-05 1.18821668772e-05 -104.720580137 193.383931169
0.8811932863 0.021584422057 3.2206477278 -0.818148459193 -3.11499639209 0 -3.49553103779 0 -3.49266392595 3.49553103779 -90 -0.818148459193 0.380534645699 0.902315658558 155.056091568 -114.943908432 30.1562926139 -2.31501110032e-06 -8.81288933685e-06 9.11187761775e-06 -104.716355623 156.728855303
0.8813026567 0.021419924417 3.19408112836 -0.810930005539 -3.08942462678 0 -3.46665105901 0 -3.46427525217 3.46665105901 -90 -0.810930005539 0.377226432233 0.894375359461 155.05323503 -114.94676497 15.6423244762 -1.00174047108e-06 -3.81563342978e-06 3.94493927278e-06 -104.707649604 80.0367676518
0.8813937987 0.021282843051 3.17196476289 -0.804920188004 -3.06813653169 0 -3.44260885054 0 -3.44063914615 3.44260885054 -90 -0.804920188004 0.374472318843 0.887764638943 155.050806934 -114.949193066 5.22779730461 -2.79185969146e-07 -1.06393133967e-06 1.09995225385e-06 -104.700280197 26.3887159316
0.88146975037 0.021168608579 3.15355008366 -0.799918011576 -3.05041098904 0 -3.42259067246 0 -3.42095705553 3.42259067246 -90 -0.799918011576 0.37217968342 0.882262188178 155.048775244 -114.951224756 1.23317038761 -5.35986076673e-08 -2.04356037688e-07 2.11268100554e-07 -104.694098046 6.14496625551
0.88153304343 0.021073413186 3.13821538212 -0.795754303892 -3.03564965431 0 -3.40592067376 0 -3.404565495 3.40592067376 -90 -0.795754303892 0.370271019443 0.877681927599 155.047083576 -114.952916424 0.440824435477 -1.56659250478e-08 -5.97548582085e-08 6.17743076125e-08 -104.688928631 2.17373351573
0.88158578764 0.020994083691 3.1254440174 -0.792287949199 -3.02335543829 0 -3.39203722268 0 -3.3909129306 3.39203722268 -90 -0.792287949199 0.368681784392 0.873868684692 155.045675928 -114.954324072 0.198494856843 -5.8116049464e-09 -2.21746470016e-08 2.29235649408e-08 -104.684610012 0.970484472338
0.88162974115 0.020927975779 3.11480646299 -0.789401703699 -3.01311504624 0 -3.38047338897 0 -3.37954070226 3.38047338897 -90 -0.789401703699 0.367358342729 0.870693532099 155.044504624 -114.955495376 0.0955199853915 -2.31340348682e-09 -8.82933985313e-09 9.12738159917e-09 -104.68100399 0.463743270848
0.88166636908 0.020872885852 3.10594548284 -0.786998162 -3.00458471234 0 -3.37084082853 0 -3.37006725352 3.37084082853 -90 -0.786998162 0.366256116187 0.86804935018 155.04352986 -114.95647014 0.0459679979199 -9.23482445325e-10 -3.52533634575e-09 3.64428578067e-09 -104.677994083 0.221871010598
0.88169689235 0.02082697758 3.10386304191 -0.785965662574 -3.00270243832 0 -3.3685401049 0 -3.36217507974 3.3685401049 -90 -0.785965662574 0.365837666578 0.866936701331 155.039804428 -114.960195572 0.0236415594696 -4.03303951678e-10 -1.5402065704e-09 1.59213406106e-09 -104.668341586 0.113775518978
0.88172232841 0.020788720687 3.10934104416 -0.786326649048 -3.00827062112 0 -3.37440625424 0 -3.3555999117 3.37440625424 -90 -0.786326649048 0.366135633118 0.867389705289 155.03199897 -114.96800103 0.012038703381 -1.75333087109e-10 -6.70776420332e-10 6.93312842451e-10 -104.648696342 0.0581951025507
0.88140985048 0.022018945682 3.26306159432 -0.826185572195 -3.15673661209 0 -3.54136786772 0 -3.5588853986 3.54136786772 -90 -0.826185572195 0.384631255628 0.911330803012 155.035665422 -114.964334578 36.0802907503 -2.96126082634e-06 -1.13142963529e-05 1.1695400702e-05 -104.666681204 192.067103294
0.88153808899 0.021819593799 3.2499670284 -0.822655011753 -3.14412500853 0 -3.5271346955 0 -3.52455938388 3.5271346955 -90 -0.822655011753 0.383009686971 0.907445711115 155.034394609 -114.965605391 29.2503496259 -2.25955449135e-06 -8.63471464889e-06 8.92546364303e-06 -104.662741647 154.812678354
0.88164495441 0.021653467229 3.2232200923 -0.815442329568 -3.11836484809 0 -3.49806204643 0 -3.4959841745 3.49806204643 -90 -0.815442329568 0.379697198332 0.899508857082 155.03176474 -114.96823526 14.8546689293 -9.57967006199e-07 -3.66273632152e-06 3.7859399401e-06 -104.654619118 77.4097086401
0.88173400893 0.021515028421 3.20095306793 -0.809436886668 -3.09691948681 0 -3.4738588516 0 -3.47219219172 3.4738588516 -90 -0.809436886668 0.376939364791 0.892900546484 155.029526456 -114.970473544 4.80972813154 -2.58283344924e-07 -9.8798167673e-07 1.02118475269e-06 -104.6477378 24.724864905
0.88180822103 0.021399662747 3.18241257826 -0.804438009966 -3.07906271629 0 -3.45370622277 0 -3.4523799058 3.45370622277 -90 -0.804438009966 0.374643506479 0.887399738389 155.027653089 -114.972346911 1.14571871246 -5.00410839928e-08 -1.91506525226e-07 1.97936523656e-07 -104.6419625 5.81432035285
0.88187006444 0.021303524686 3.16697285386 -0.800276769725 -3.06419191734 0 -3.43692397731 0 -3.43587964288 3.43692397731 -90 -0.800276769725 0.372732059966 0.88282054966 155.026092953 -114.973907047 0.419015273417 -1.49717256271e-08 -5.73192921447e-08 5.92423373561e-08 -104.637131305 2.10435616323
0.88192160062 0.021223409635 3.15411384416 -0.796812269493 -3.05180640752 0 -3.42294684483 0 -3.42213634992 3.42294684483 -90 -0.796812269493 0.371140437306 0.879007987849 155.024794564 -114.975205436 0.19004241397 -5.59573029846e-09 -2.14299340729e-08 2.21484620377e-08 -104.633093834 0.946356065805
0.88196454744 0.021156647092 3.14340316578 -0.793927428597 -3.04148988738 0 -3.41130484532 0 -3.41068841499 3.41130484532 -90 -0.793927428597 0.369814957944 0.875833254822 155.023714052 -114.976285948 0.0916161662535 -2.23176840389e-09 -8.54915207228e-09 8.83565543158e-09 -104.629721586 0.453036904468
0.88200033645 0.021101011639 3.13448118899 -0.791524959155 -3.03289607888 0 -3.40160707862 0 -3.40115180876 3.40160707862 -90 -0.791524959155 0.36871099974 0.873189319219 155.022814766 -114.977185234 0.0440433627988 -8.90062160308e-10 -3.41023672035e-09 3.52447550562e-09 -104.626906117 0.216529157545
0.88203016063 0.021054648763 3.12704870186 -0.78952399079 -3.02573685845 0 -3.39352831587 0 -3.39320695599 3.39352831587 -90 -0.78952399079 0.367791457418 0.870987205875 155.022066206 -114.977933794 0.0202330725733 -3.40018032431e-10 -1.30298778269e-09 1.34662161708e-09 -104.624556263 0.098991316223
0.88205501411 0.021016013032 3.12339148856 -0.788539507704 -3.02221407815 0 -3.38955309737 0 -3.38658785551 3.38955309737 -90 -0.788539507704 0.367339019219 0.869903750254 155.021698033 -114.978301967 0.0118311787722 -1.72801402478e-10 -6.62270376055e-10 6.84443180251e-10 -104.623398851 0.0577020342609
0.88176284911 0.022248277776 3.29147528147 -0.830412672112 -3.18499952756 0 -3.57198266992 0 -3.58953796969 3.57198266992 -90 -0.830412672112 0.386983142362 0.916155657485 155.013894077 -114.986105923 35.1521647802 -2.90031314097e-06 -1.11236854871e-05 1.14955740864e-05 -104.613292615 190.396592639
0.8818880732 0.022046985209 3.27829645043 -0.826886035302 -3.17229960103 0 -3.55765958251 0 -3.55499483116 3.55765958251 -90 -0.826886035302 0.38535998148 0.912273457265 155.012732588 -114.987267412 28.3300763992 -2.20174275697e-06 -8.44574934425e-06 8.72802209731e-06 -104.609630949 152.574528159
0.88199242661 0.021879241404 3.25137713578 -0.819681161344 -3.14635882093 0 -3.52840298389 0 -3.52623804689 3.52840298389 -90 -0.819681161344 0.382044162965 0.904342290078 155.010326717 -114.989673283 14.0720301602 -9.13634421398e-07 -3.50635565207e-06 3.62343215603e-06 -104.602077575 74.6236071635
0.88207938778 0.021739454899 3.22896606691 -0.813681799418 -3.12476265152 0 -3.5040460503 0 -3.50229430963 3.5040460503 -90 -0.813681799418 0.379283398778 0.897738266535 155.008276083 -114.991723917 4.41091738155 -2.38086319832e-07 -9.14115446666e-07 9.44612264383e-07 -104.595672511 23.0717315983
0.88215185542 0.021622966145 3.21030526613 -0.80868764577 -3.10678002048 0 -3.48376499602 0 -3.48235525557 3.48376499602 -90 -0.80868764577 0.376984975546 0.8922406667 155.00655923 -114.99344077 1.06556898471 -4.6756834033e-08 -1.79598888763e-07 1.85585477292e-07 -104.590294224 5.50225120313
0.88221224513 0.021525892183 3.19476509276 -0.804530061517 -3.09180421955 0 -3.46687551501 0 -3.4657491399 3.46687551501 -90 -0.804530061517 0.375071295457 0.887663856997 155.005129126 -114.994870874 0.398057721935 -1.42964073344e-08 -5.49344831282e-08 5.67642963962e-08 -104.585793117 2.03417247972
0.88226256988 0.021444997215 3.18182224409 -0.801068409733 -3.07933112731 0 -3.45280887117 0 -3.45191748952 3.45280887117 -90 -0.801068409733 0.373477743858 0.88385306933 155.003938756 -114.996061244 0.181710271995 -5.3793120706e-09 -2.06761699328e-08 2.13644820166e-08 -104.582030099 0.920751439161
0.88230450717 0.021377584741 3.17104160855 -0.798185805445 -3.06894156552 0 -3.44109217592 0 -3.44039582149 3.44109217592 -90 -0.798185805445 0.3721506104 0.880679670678 155.002948015 -114.997051985 0.0877071931139 -2.14837434117e-09 -8.25951849959e-09 8.53435249052e-09 -104.578886129 0.441323880075
0.88233945492 0.02132140768 3.16206127055 -0.795785105467 -3.06028684954 0 -3.4313320913 0 -3.43079770019 3.4313320913 -90 -0.795785105467 0.37104524176 0.878036747909 155.002123364 -114.997876636 0.0420970424864 -8.55524105083e-10 -3.2897266503e-09 3.39915065476e-09 -104.576260604 0.210594409464
0.88236857804 0.021274593462 3.15458010537 -0.793785546903 -3.05307684574 0 -3.42320134793 0 -3.42280153564 3.42320134793 -90 -0.793785546903 0.370124502191 0.875835410606 155.001436879 -114.998563121 0.0192623812388 -3.25561285046e-10 -1.25206745679e-09 1.29370142988e-09 -104.574068844 0.09589600757
0.8823928473 0.021235581614 3.15089892477 -0.792801741106 -3.04952906626 0 -3.41920053548 0 -3.41613964153 3.41920053548 -90 -0.792801741106 0.36967146922 0.874752319561 155.001099224 -114.998900776 0.0112142792451 -1.64696948385e-10 -6.33468847514e-10 6.54528798299e-10 -104.572989191 0.0556522578419
0.88211980066 0.022471406946 3.31895687533 -0.834384109554 -3.21236292838 0 -3.60158171558 0 -3.61900708619 3.60158171558 -90 -0.834384109554 0.389218787199 0.920699808242 154.992181636 -115.007818364 34.2373681919 -2.83832432131e-06 -1.09272411022e-05 1.12898498589e-05 -104.560452058 188.554743817
0.88224198779 0.022268209167 3.3056980315 -0.830862451991 -3.1995788383 0 -3.58717336868 0 -3.58425606744 3.58717336868 -90 -0.830862451991 0.387594530382 0.916821664346 154.991128159 -115.008871841 27.4266896277 -2.14344222819e-06 -8.2532044084e-06 8.52700082127e-06 -104.557061607 150.202430437
0.8823438104 0.022098877684 3.27861496148 -0.823667533929 -3.17346587148 0 -3.55774226245 0 -3.55532538825 3.55774226245 -90 -0.823667533929 0.384276390971 0.908898553201 154.988943604 -115.011056396 13.3220722939 -8.70336145288e-07 -3.35270368961e-06 3.46382873557e-06 -104.550063804 71.8455547961
0.88242866257 0.021957768116 3.25606701655 -0.817676049373 -3.15172590037 0 -3.53323943959 0 -3.531236281 3.53323943959 -90 -0.817676049373 0.381513539216 0.902300798099 154.987078355 -115.012921645 4.04448535954 -2.19297857307e-07 -8.45115877337e-07 8.73105119816e-07 -104.54412375 21.512549311
0.88249937271 0.021840176808 3.2372918667 -0.812688115824 -3.13362323452 0 -3.51283648825 0 -3.51117576789 3.51283648825 -90 -0.812688115824 0.379213253731 0.896808057805 154.985516082 -115.014483918 0.995025864487 -4.38457440753e-08 -1.69040867486e-07 1.74634676434e-07 -104.539133108 5.2250374288
0.88255829783 0.021742184052 3.22165620497 -0.808535435512 -3.11854727755 0 -3.49584520298 0 -3.49446821682 3.49584520298 -90 -0.808535435512 0.377297925435 0.892235003525 154.984214395 -115.015785605 0.379074493054 -1.36787736677e-08 -5.27545855892e-08 5.44991351427e-08 -104.534954305 1.97008357991
0.8826074021 0.021660523422 3.20863364638 -0.805077671304 -3.1059906359 0 -3.4816935678 0 -3.48055188428 3.4816935678 -90 -0.805077671304 0.3757029319 0.888427135928 154.983130704 -115.016869296 0.174105123698 -5.17961915628e-09 -1.9981513344e-08 2.06419333528e-08 -104.531459248 0.897241361941
0.88264832232 0.021592472896 3.19778649122 -0.802198167303 -3.09553139011 0 -3.46990593895 0 -3.46895954211 3.46990593895 -90 -0.802198167303 0.37437454884 0.885256023987 154.982228622 -115.017771378 0.0841435469444 -2.07153267231e-09 -7.99315441529e-09 8.25722581602e-09 -104.528538114 0.430618997906
0.8826824225 0.021535764125 3.18875065489 -0.799799953566 -3.08681856343 0 -3.46008666874 0 -3.4593024526 3.46008666874 -90 -0.799799953566 0.373268105306 0.88261490435 154.981477682 -115.018522318 0.0403307255897 -8.23870504967e-10 -3.17954017946e-09 3.28454569323e-09 -104.526097944 0.205209366612
0.88271083932 0.021488506816 3.18122319595 -0.797802398888 -3.07956010607 0 -3.4519065526 0 -3.45125709698 3.4519065526 -90 -0.797802398888 0.372346446532 0.880414998084 154.9808525 -115.0191475 0.0183869033868 -3.12406530693e-10 -1.20584224999e-09 1.24565391062e-09 -104.524060401 0.0931068940445
0.88273452001 0.021449125725 3.17972147207 -0.79695761785 -3.07822764214 0 -3.45023819707 0 -3.44455417475 3.45023819707 -90 -0.79695761785 0.372010554925 0.879507430729 154.977400271 -115.022599729 0.00868403536459 -1.25331350254e-10 -4.83913639957e-10 4.99880390958e-10 -104.515329403 0.0438636773156
0.88275425391 0.021416308149 3.18501583684 -0.79728951508 -3.08361075852 0 -3.45590403177 0 -3.43896947639 3.45590403177 -90 -0.79728951508 0.372293273246 0.879927753944 154.969840173 -115.030159827 0.0039319616926 -4.83158341463e-11 -1.86867158244e-10 1.93012317377e-10 -104.496752749 0.0199435503805
0.88233430806 0.022939790491 3.39396806139 -0.849191296232 -3.28601481191 0 -3.68268707787 0 -3.690208669 3.68268707787 -90 -0.849191296232 0.396672265955 0.937269835306 154.961890381 -115.038109619 47.7231260009 -4.87883163512e-06 -1.88790359593e-05 1.94992563159e-05 -104.489704688 274.861802385
0.88247720975 0.022693794533 3.3637908469 -0.842287277893 -3.25663005034 0 -3.64998162608 0 -3.64823424337 3.64998162608 -90 -0.842287277893 0.393351575734 0.929609242797 154.96727624 -115.03272376 38.7665159919 -3.56964182245e-06 -1.38039999736e-05 1.42580778409e-05 -104.50120477 219.874528573
0.88259629449 0.022488797902 3.33217596243 -0.834589407221 -3.22596572524 0 -3.61568087756 0 -3.61329558973 3.61568087756 -90 -0.834589407221 0.389715152323 0.921095765248 154.969591857 -115.030408143 26.5437736488 -2.08560430728e-06 -8.06057949881e-06 8.32602555636e-06 -104.505045194 147.712889143
0.88269553178 0.022317967376 3.30493777321 -0.827406514531 -3.19968903689 0 -3.5860847161 0 -3.58420784523 3.5860847161 -90 -0.827406514531 0.386395679211 0.913182999289 154.967625614 -115.032374386 12.605678522 -8.28431234305e-07 -3.20310175622e-06 3.30849835752e-06 -104.498589359 69.0827335583
0.88277822952 0.022175608604 3.28226013164 -0.821424632513 -3.17781229921 0 -3.56144386126 0 -3.55998736318 3.56144386126 -90 -0.821424632513 0.383631562051 0.906593420631 154.965943211 -115.034056789 3.71017201362 -2.01999113413e-07 -7.81309519344e-07 8.06999588465e-07 -104.493102928 20.0513105831
0.8828471443 0.022056976294 3.26337660406 -0.81644435341 -3.15959544924 0 -3.54092554707 0 -3.53981703403 3.54092554707 -90 -0.81644435341 0.381330097827 0.901107126251 154.964533358 -115.035466642 0.934457573828 -4.13397965585e-08 -1.59960557421e-07 1.6521611311e-07 -104.488490369 4.98594422043
0.88290457328 0.021958116035 3.24765042233 -0.812297771875 -3.14442420321 0 -3.52383789309 0 -3.52301773573 3.52383789309 -90 -0.812297771875 0.37941368988 0.896539148556 154.963358306 -115.036641694 0.362977203756 -1.3156037007e-08 -5.0922274668e-08 5.25942953069e-08 -104.484625901 1.91686718119
0.88295243077 0.021875732487 3.234552289 -0.808844890872 -3.13178806224 0 -3.50960578933 0 -3.50902478522 3.50960578933 -90 -0.808844890872 0.377817727094 0.892735301485 154.962379856 -115.037620144 0.167812864836 -5.01561919618e-09 -1.94185116015e-08 2.00557997884e-08 -104.481392165 0.878789894597
0.88299231201 0.021807079529 3.22364205767 -0.805969316658 -3.12126250463 0 -3.49775099175 0 -3.49736848222 3.49775099175 -90 -0.805969316658 0.37648848712 0.889567392631 154.961565286 -115.038434714 0.0812755179922 -2.01045115197e-09 -7.78526100647e-09 8.04066010579e-09 -104.47868833 0.422667429103
0.88302554637 0.021749868731 3.21455359027 -0.803574279909 -3.11249437493 0 -3.4878756695 0 -3.48765801405 3.4878756695 -90 -0.803574279909 0.375381294574 0.886928838753 154.960887159 -115.039112841 0.0389463583524 -7.99448950212e-10 -3.09629724626e-09 3.1978394534e-09 -104.476428894 0.201370677323
0.88305324168 0.021702193067 3.20698222574 -0.801579304201 -3.10518980248 0 -3.47964878933 0 -3.47956812214 3.47964878933 -90 -0.801579304201 0.374458986857 0.884730998014 154.960322588 -115.039677412 0.0177155308315 -3.02485488139e-10 -1.1716973733e-09 1.2101125884e-09 -104.474541703 0.0911579937284
0.8830763211 0.021662463346 3.20067439462 -0.799917442406 -3.09910418953 0 -3.4727948316 0 -3.47282804885 3.4727948316 -90 -0.799917442406 0.373690642074 0.882900127701 154.959852517 -115.040147483 0.00732058227248 -1.04229484499e-10 -4.03784050738e-10 4.17019636383e-10 -104.472966033 0.0375185342647
0.88309555395 0.021629355245 3.19986278227 -0.799265117636 -3.09843433775 0 -3.47187676591 0 -3.46721236507 3.47187676591 -90 -0.799265117636 0.373442428164 0.882204057089 154.956521221 -115.043478779 0.00301045835057 -3.64231243002e-11 -1.41137599962e-10 1.45761689153e-10 -104.46463911 0.0153949056936
0.88311158133 0.021601765162 3.20536962491 -0.799662272466 -3.10401911758 0 -3.47777345032 0 -3.46253335371 3.47777345032 -90 -0.799662272466 0.373754332736 0.882695899642 154.949072745 -115.050927255 0.00108907330795 -1.11752053976e-11 -4.33783765863e-11 4.47947404384e-11 -104.446497141 0.00559478436578
0.88270348329 0.023150855677 3.40642730529 -0.850801961248 -3.29846640209 0 -3.69608864107 0 -3.71724075269 3.69608864107 -90 -0.850801961248 0.397622238979 0.939131223055 154.950989269 -115.049010731 47.1961588043 -4.83433810082e-06 -1.87418101786e-05 1.93552667569e-05 -104.46362779 273.807443238
0.88284270261 0.022902633627 3.39033487379 -0.846596955965 -3.28293188353 0 -3.6786052551 0 -3.67503600448 3.6786052551 -90 -0.846596955965 0.395673371577 0.93449657803 154.950076118 -115.049923882 40.4704993362 -3.87072172398e-06 -1.50084719658e-05 1.54995731412e-05 -104.460367668 233.022772339
0.8829587187 0.022695781918 3.35743463519 -0.837994318338 -3.25117372096 0 -3.64286123594 0 -3.63990440636 3.64286123594 -90 -0.837994318338 0.39168751498 0.925015468574 154.948127344 -115.051872656 25.5410830387 -2.01752516703e-06 -7.82645863768e-06 8.08231871786e-06 -104.453548682 144.30612192
0.88305539878 0.022523405494 3.33004708354 -0.830824564858 -3.22473904735 0 -3.61310632647 0 -3.61065517646 3.61310632647 -90 -0.830824564858 0.38836727912 0.917114294982 154.946374959 -115.053625041 11.809281961 -7.80649626853e-07 -3.02946356535e-06 3.12842856222e-06 -104.447617444 65.7109570546
0.88313596551 0.022379758474 3.30724452868 -0.82485325486 -3.20273029717 0 -3.58833268163 0 -3.58629963963 3.58833268163 -90 -0.82485325486 0.385602384462 0.910533974663 154.944871987 -115.055128013 3.35371151276 -1.83288134313e-07 -7.11524802896e-07 7.34753149031e-07 -104.442570752 18.4003277571
0.88320310445 0.022260052624 3.28825659811 -0.819881457023 -3.1844032073 0 -3.56770336286 0 -3.56601642968 3.56770336286 -90 -0.819881457023 0.383300155565 0.90505504812 154.943611729 -115.056388271 0.866864669286 -3.84940853546e-08 -1.49488971046e-07 1.54365642627e-07 -104.438324992 4.69573941045
0.88325905357 0.022160297749 3.27244319922 -0.81574167689 -3.16913994512 0 -3.55052296501 0 -3.54912283173 3.55052296501 -90 -0.81574167689 0.381383019894 0.900492930547 154.942560889 -115.057439111 0.342839198554 -1.24790735184e-08 -4.84757357364e-08 5.00562154308e-08 -104.434765687 1.83816231568
0.88330567784 0.022077168686 3.25927223569 -0.812294276946 -3.1564270205 0 -3.53621340854 0 -3.5350511369 3.53621340854 -90 -0.812294276946 0.379786388041 0.896693771076 154.941685566 -115.058314434 0.159295801586 -4.78243137343e-09 -1.85819210595e-08 1.91874831256e-08 -104.431785858 0.846940830829
0.8833445314 0.022007894467 3.24830120845 -0.809423141993 -3.14583740382 0 -3.52429395183 0 -3.52332910212 3.52429395183 -90 -0.809423141993 0.378456548005 0.89352963426 154.940956646 -115.059043354 0.0771477607967 -1.917177614e-09 -7.45049249528e-09 7.69320605134e-09 -104.429293355 0.407338624229
0.88337690936 0.021950165951 3.23916200557 -0.807031717187 -3.1370158407 0 -3.51436466756 0 -3.51356377991 3.51436466756 -90 -0.807031717187 0.377348826857 0.890894132386 154.940349678 -115.059650322 0.0368546928883 -7.60100574316e-10 -2.95433268358e-09 3.05054686773e-09 -104.427209879 0.193471546231
0.88340389099 0.021902058855 3.23154831036 -0.805039691804 -3.12966670381 0 -3.50609276329 0 -3.50542812269 3.50609276329 -90 -0.805039691804 0.376426059472 0.888698772813 154.939844245 -115.060155755 0.0166662186665 -2.85951017722e-10 -1.11156051975e-09 1.1477521567e-09 -104.425469239 0.0870707300106
0.88342637569 0.021861969608 3.22520516826 -0.803380248209 -3.12354392824 0 -3.49920124714 0 -3.49864987421 3.49920124714 -90 -0.803380248209 0.375657318906 0.88686992812 154.939423337 -115.060576663 0.0068242090947 -9.76467202538e-11 -3.79613242817e-10 3.91970820194e-10 -104.424015656 0.0355095062861
0.88344511294 0.021828561902 3.21992033034 -0.801997780648 -3.11844266026 0 -3.49345952358 0 -3.49300235192 3.49345952358 -90 -0.801997780648 0.375016863322 0.885346323592 154.939072793 -115.060927207 0.00238616873529 -2.85502304564e-11 -1.11000703193e-10 1.14613586158e-10 -104.422802225 0.0123747270633
0.88346072731 0.021800722147 3.21732026144 -0.801317654198 -3.11593289742 0 -3.49063467219 0 -3.48829679044 3.49063467219 -90 -0.801317654198 0.374701774768 0.884596759888 154.938900368 -115.061099632 0.00102713696969 -1.05607959652e-11 -4.1061428429e-11 4.23977786932e-11 -104.42220462 0.00531371649717
0.88291055614 0.023661514037 3.48619419883 -0.86655724226 -3.37677783365 0 -3.782335644 0 -3.79498707051 3.782335644 -90 -0.86655724226 0.40555781035 0.956764647993 154.91991669 -115.08008331 60.5086018809 -7.66184070859e-06 -2.98564625717e-05 3.08238894421e-05 -104.392805632 367.697158952
0.88307310988 0.023361134059 3.45184491035 -0.858702140065 -3.34333099265 0 -3.74510718719 0 -3.74402904341 3.74510718719 -90 -0.858702140065 0.401776194545 0.94804720418 154.925728056 -115.074271944 51.6053475657 -5.85007093033e-06 -2.2780405536e-05 2.35195722352e-05 -104.404639602 308.095175912
0.88320857133 0.023110817411 3.41482878836 -0.849740247781 -3.30741512388 0 -3.7049481893 0 -3.7016186741 3.7049481893 -90 -0.849740247781 0.397533065417 0.938131684853 154.928462933 -115.071537067 39.4724932939 -3.79158104444e-06 -1.47565756059e-05 1.52359002856e-05 -104.408855393 230.585486615
0.88332145587 0.022902220204 3.38176041049 -0.841156251557 -3.27547819075 0 -3.669025828 0 -3.66631465899 3.669025828 -90 -0.841156251557 0.393547637251 0.928667654379 154.926764396 -115.073235604 24.5559065159 -1.94931247354e-06 -7.589808389e-06 7.83613569408e-06 -104.402643529 140.773085174
0.88341552632 0.022728389198 3.35423207787 -0.834001523521 -3.24889398448 0 -3.63912155299 0 -3.63692101029 3.63912155299 -90 -0.834001523521 0.390227568514 0.920780172089 154.925222341 -115.074777659 11.0504610851 -7.34405159943e-07 -2.86045465882e-06 2.9532276366e-06 -104.39722309 62.3937060707
0.88349391836 0.022583530027 3.33131174485 -0.828042362205 -3.2267602468 0 -3.61422291978 0 -3.61244461334 3.61422291978 -90 -0.828042362205 0.387462672981 0.914210864349 154.923895799 -115.076104201 3.03319404248 -1.66313333945e-07 -6.47983781382e-07 6.68986689382e-07 -104.392604638 16.8850921187
0.88355924506 0.02246281405 3.31222534677 -0.82308035763 -3.20832876007 0 -3.5934890863 0 -3.59206033212 3.5934890863 -90 -0.82308035763 0.385160326228 0.908740765679 154.922782548 -115.077217452 0.807623197749 -3.59846552676e-08 -1.40250207433e-07 1.44793024704e-07 -104.388716027 4.43902995016
0.88361368397 0.022362217403 3.29632967027 -0.818948472169 -3.19297834342 0 -3.57622134488 0 -3.57508226278 3.57622134488 -90 -0.818948472169 0.383243001464 0.904185724741 154.92185375 -115.07814625 0.324990585413 -1.18749571105e-08 -4.62951417955e-08 4.77938822428e-08 -104.385453831 1.76812280562
0.88365904974 0.022278386864 3.28308998878 -0.81550746261 -3.18019268238 0 -3.56183883051 0 -3.5609400048 3.56183883051 -90 -0.81550746261 0.381646148129 0.900392264543 154.921079749 -115.078920251 0.151790877558 -4.57565814315e-09 -1.78422499633e-08 1.84196252086e-08 -104.382721152 0.818950815193
0.88369685454 0.022208528081 3.27206158983 -0.812641521281 -3.16954237713 0 -3.5498584561 0 -3.54915904934 3.5498584561 -90 -0.812641521281 0.380316078974 0.897232738886 154.920434984 -115.079565016 0.0735538683443 -1.83555239355e-09 -7.15877013528e-09 7.39034858916e-09 -104.380434284 0.394107640624
0.88372835855 0.022150312429 3.26287450376 -0.810254332774 -3.16067018898 0 -3.53987832491 0 -3.53934454444 3.53987832491 -90 -0.810254332774 0.379208135925 0.894600983396 154.919897942 -115.080102058 0.0350573227221 -7.26155087384e-10 -2.83245555918e-09 2.92405663981e-09 -104.378521932 0.186764292905
0.88375461188 0.022101799386 3.25522085431 -0.808265773442 -3.15327882852 0 -3.53156399046 0 -3.53116784488 3.53156399046 -90 -0.808265773442 0.378285161934 0.892408678435 154.919450636 -115.080549364 0.0157748940935 -2.71860826619e-10 -1.06055014378e-09 1.09484023003e-09 -104.376923722 0.0836386094596
0.88377648966 0.022061371849 3.24884438145 -0.806609173392 -3.14712084194 0 -3.52463707599 0 -3.52435535494 3.52463707599 -90 -0.806609173392 0.377516234054 0.890582332207 154.919078061 -115.080921939 0.00640611401491 -9.20848041897e-11 -3.59264002872e-10 3.70877687666e-10 -104.375588703 0.0338304543338
0.88379472115 0.022027682236 3.24353174375 -0.805229044126 -3.14199021492 0 -3.51886582672 0 -3.51867927077 3.51886582672 -90 -0.805229044126 0.376875611801 0.889060776862 154.91876772 -115.08123228 0.00221144483976 -2.65851856201e-11 -1.03728461748e-10 1.07081127593e-10 -104.374473981 0.0116398828506
0.88380991405 0.021999607558 3.24316531619 -0.804709182363 -3.14174516676 0 -3.51843198983 0 -3.51394988874 3.51843198983 -90 -0.804709182363 0.37668682307 0.888509906261 154.915578862 -115.084421138 0.000715074116628 -7.29207928035e-12 -2.84565393342e-11 2.93759970515e-11 -104.366639096 0.00375603353238
0.8838225748 0.021976211993 3.24856441627 -0.805091466668 -3.14722075758 0 -3.52421121397 0 -3.51000921484 3.52421121397 -90 -0.805091466668 0.37699045639 0.888984855838 154.908284543 -115.091715457 0.00018037645364 -1.55160288253e-12 -6.06544349505e-12 6.26075684695e-12 -104.349135237 0.000951771758776