TITLE = "Electromagnetic Field"
VARIABLES = X Y E ER EI EvR EvI EvR' EvI' Ev EvPhase EpR EpI Ep EpPhase EpToEvPhaseShift elConductivity Jr Ji J Jphase QJ
ZONE N=285, E=250, F=FEPOINT, ET=QUADRILATERAL
0.88655831491 0.073817061467 10.720433758 -1.19004563659 -10.6541771781 0 -11.5533732028 0 -11.4038361747 11.5533732028 -90 -1.19004563659 0.899196024643 1.49156364527 142.925380992 -127.074619008 0.000956148765167 -1.92763847635e-09 -1.72576590603e-08 1.73649816106e-08 -96.3733811063 0.0549439892001
0.88656318991 0.075993986891 10.8746231441 -1.19023054712 -10.8092786795 0 -11.7177283014 0 -11.7246843818 11.7177283014 -90 -1.19023054712 0.908449621867 1.49732443706 142.64816545 -127.35183455 0.000479968317102 -9.68152344747e-10 -8.67222201933e-09 8.72609689539e-09 -96.2848547708 0.0276096528791
0.88656820758 0.078234624342 11.1824927417 -1.191042803 -11.1188714734 0 -12.0458736432 0 -12.0535620105 12.0458736432 -90 -1.191042803 0.927002169861 1.50929313044 142.107086313 -127.892913687 8.48152428147e-06 -1.76002803313e-11 -1.62047764887e-10 1.63000761174e-10 -96.1153014326 0.000515439561177
0.88657337131 0.080540483715 11.4979700256 -1.19273039978 -11.43592873 0 -12.3820871695 0 -12.3905353335 12.3820871695 -90 -1.19273039978 0.946158439512 1.52245528073 141.577234956 -128.422765044 6.05638278551e-09 -1.29430676401e-14 -1.22443598583e-13 1.23125780542e-13 -95.9553157673 3.89143588048e-07
0.88657868455 0.082913107361 11.8211046812 -1.19527854694 -11.7605100365 0 -12.7264263041 0 -12.7356621592 12.7264263041 -90 -1.19527854694 0.965916267574 1.53679282315 141.059226009 -128.940773991 1.44145498363e-20 -3.17438599317e-26 -3.08299573114e-25 3.09929507188e-25 -95.8043387695 9.79086771131e-19
0.88658415083 0.08535407074 12.1519386062 -1.19867192355 -12.0926664601 0 -13.0789391948 0 -13.0889909776 13.0789391948 -90 -1.19867192355 0.986272734731 1.55228671422 140.553587546 -129.446412454 4.91550513641e-32 -1.11609939267e-37 -1.11189721886e-36 1.11748476672e-36 -95.6618404199 3.52871669639e-30
0.88658977375 0.087864983093 12.4905050104 -1.20289465677 -12.432439705 0 -13.4396638145 0 -13.450560059 13.4396638145 -90 -1.20289465677 1.00722410945 1.56891691909 140.060762099 -129.939237901 1.57615472736e-48 -3.69185332541e-54 -3.7695905479e-53 3.78762599904e-53 -95.5273186577 1.1955661748e-46
0.886595557 0.090447488124 12.8368274715 -1.20793029467 -12.7798612227 0 -13.808627011 0 -13.8203964966 13.808627011 -90 -1.20793029467 1.02876578834 1.58666238945 139.581108658 -130.418891342 3.32734428898e-68 -8.04417826602e-74 -8.41132883947e-73 8.44970655618e-73 -95.4002983147 2.66617655419e-66
0.88660150433 0.093103264695 13.1909189457 -1.21376177479 -13.1349512737 0 -14.185843507 0 -14.1985151997 14.185843507 -90 -1.21376177479 1.05089223332 1.60550103303 139.114905538 -130.885094462 3.75821748595e-84 -9.38260910726e-90 -1.00390223555e-88 1.00827726044e-88 -95.2803300297 3.18033191434e-82
0.88660761958 0.095834027539 13.5527807252 -1.22037138881 -13.4977179325 0 -14.5713148377 0 -14.5849178288 14.5713148377 -90 -1.22037138881 1.07359690523 1.62540967444 138.662353996 -131.337646004 3.18552995853e-92 -8.2171196856e-98 -8.98978952506e-97 9.02726574705e-97 -95.1669891598 2.84638165037e-90
0.88661390668 0.098641527978 13.9224013555 -1.22774074374 -13.8681560487 0 -14.9650282436 0 -14.9795916778 14.9650282436 -90 -1.22774074374 1.09687219483 1.64636400788 138.223582456 -131.776417544 6.25061034689e-95 -1.66972679609e-100 -1.86853169042e-99 1.87597740107e-99 -95.0598746917 5.91281189182e-93
0.88662036964 0.10152755466 14.2997555065 -1.23585071989 -14.2462461598 0 -15.3669555108 0 -15.3825085025 15.3669555108 -90 -1.23585071989 1.12070935105 1.66833854211 137.798651185 -132.201348815 4.30228065532e-96 -1.19409893057e-101 -1.36800816179e-100 1.37321009076e-100 -94.9586081649 4.32618883562e-94
0.88662701253 0.10449393433 14.684802783 -1.24468142572 -14.6319533391 0 -15.7770517449 0 -15.7936232988 15.7770517449 -90 -1.24468142572 1.1450984058 1.69130653685 137.387557351 -132.612442649 1.64801006323e-96 -4.78369224961e-102 -5.62424216323e-101 5.64455118208e-101 -94.8628326153 1.77722859572e-94
0.88663383954 0.10754253255 14.8766038162 -1.24921033914 -14.8240620153 0 -15.9813239948 0 -16.2128730136 15.9813239948 -90 -1.24921033914 1.1572619795 1.7028745581 137.188137141 -132.811862859 1.64816368803e-96 -4.8651282609e-102 -5.77332421866e-101 5.7937869536e-101 -94.8168831741 1.82380306242e-94
0.88733279364 0.071850490196 10.4047652125 -1.18570283456 -10.3369844691 0 -11.215908219 0 -11.0711496893 11.215908219 -90 -1.18570283456 0.878923749895 1.47593975826 143.451637355 -126.548362645 0.00748021409624 -1.46262773691e-08 -1.27512221105e-07 1.28348332754e-07 -96.5435089012 0.404900769272
0.88733732923 0.073963171419 10.6102257872 -1.186999629 -10.543608869 0 -11.4352618255 0 -11.3825353241 11.4352618255 -90 -1.186999629 0.891652956554 1.48460644557 143.087793129 -126.912206871 0.00305000802591 -5.99900422793e-09 -5.25952721723e-08 5.29363304014e-08 -96.4244307503 0.167042738437
0.88734199806 0.076137915433 10.8639573469 -1.1878255423 -10.7988131854 0 -11.7058903944 0 -11.7018243158 11.7058903944 -90 -1.1878255423 0.907077209037 1.49458000528 142.634023563 -127.365976437 0.000449159568554 -9.04979059807e-10 -8.11432881463e-09 8.16463906975e-09 -96.278276173 0.0257898972629
0.88734680328 0.078376193488 11.171083737 -1.18865635237 -11.1076527909 0 -12.0332431141 0 -12.0290900432 12.0332431141 -90 -1.18865635237 0.925590323179 1.50654271365 142.093689328 -127.906310672 7.54675235219e-06 -1.56435855655e-11 -1.44161660627e-10 1.45007953369e-10 -96.1092483761 0.000457827599783
0.88735174812 0.080679508434 11.485793122 -1.19035887454 -11.4239330844 0 -12.3686379323 0 -12.3643983065 12.3686379323 -90 -1.19035887454 0.944704847893 1.51969397702 141.564579013 -128.435420987 5.05989979645e-09 -1.08024109244e-14 -1.02272247505e-13 1.02841162945e-13 -95.9497462197 3.24574030928e-07
0.88735683589 0.083049395369 11.8081350534 -1.19291844518 -11.747713436 0 -12.7121320969 0 -12.7078065374 12.7121320969 -90 -1.19291844518 0.964418660816 1.5340158764 141.047303875 -128.952696125 1.03001733106e-20 -2.26651242304e-26 -2.20247072761e-25 2.21410210411e-25 -95.7992141335 6.98718840388e-19
0.88736206994 0.085487422283 12.1381513372 -1.19631986971 -12.0790447457 0 -13.0637736324 0 -13.0593629594 13.0637736324 -90 -1.19631986971 0.984728886703 1.54948951688 140.542388947 -129.457611053 3.2219776704e-32 -7.31096231168e-38 -7.28642208005e-37 7.3230081738e-37 -95.6571252712 2.31052889128e-30
0.88736745372 0.087995190728 12.4758751405 -1.2005474013 -12.4179686067 0 -13.4236004485 0 -13.4191056937 13.4236004485 -90 -1.2005474013 1.00563184175 1.56609501515 140.050274062 -129.949725938 9.76859943374e-49 -2.28685660806e-54 -2.33574480405e-53 2.34691306667e-53 -95.5229804998 7.40320774345e-47
0.88737299073 0.090574336493 12.821330052 -1.20558471398 -12.7645164195 0 -13.7916393939 0 -13.7870618195 13.7916393939 -90 -1.20558471398 1.02712297432 1.5838114776 139.571315849 -130.428684151 2.10021524003e-68 -5.07435928088e-74 -5.30765337303e-73 5.33185480373e-73 -95.3963073497 1.68122405352e-66
0.88737868456 0.093226530295 13.174529101 -1.21141487159 -13.1187084615 0 -14.1679052642 0 -14.1632463756 14.1679052642 -90 -1.21141487159 1.04919680268 1.6026169703 139.105790597 -130.894209403 2.7144135226e-84 -6.77030977967e-90 -7.24717955604e-89 7.27873496317e-89 -95.2766589454 2.29357087568e-82
0.88738453888 0.095953478482 13.5354737231 -1.21802029277 -13.4805528991 0 -14.5523997483 0 -14.5476613116 14.5523997483 -90 -1.21802029277 1.07184684921 1.62248848016 138.65389786 -131.34610214 2.78692849035e-92 -7.17918227821e-98 -7.85884311646e-97 7.8915665392e-97 -95.16361293 2.48487233211e-90
0.88739055743 0.098756923752 13.9041526824 -1.22538271254 -13.8500447542 0 -14.9451103259 0 -14.940294387 14.9451103259 -90 -1.22538271254 1.09506557171 1.64340186811 138.215764661 -131.784235339 5.95309148874e-95 -1.5878550467e-100 -1.77805165644e-99 1.78512776824e-99 -95.0567703925 5.61809102391e-93
0.88739674402 0.10163864588 14.2805409497 -1.23348314061 -14.2271648226 0 -15.3460091149 0 -15.3411180135 15.3460091149 -90 -1.23348314061 1.11884429225 1.6653318144 137.791450162 -132.208549838 4.19807075373e-96 -1.16298607049e-101 -1.3329694438e-100 1.33803353401e-100 -94.9557548036 4.20910222207e-94
0.88740310256 0.10460046248 14.664598523 -1.24230181676 -14.6118785325 0 -15.7550516551 0 -15.7500880462 15.7550516551 -90 -1.24230181676 1.14317312261 1.68825175577 137.38095069 -132.61904931 1.5593673596e-96 -4.51867431548e-102 -5.31536476182e-101 5.3345389189e-101 -94.8602109722 1.67727641036e-94
0.88740963704 0.10764422973 14.9827138748 -1.24935365774 -14.9305292713 0 -16.0936789449 0 -16.1671425181 16.0936789449 -90 -1.24935365774 1.16314967362 1.706995325 137.047527074 -132.952472926 1.52946860164e-96 -4.5556908757e-102 -5.44347999627e-101 5.46251172257e-101 -94.7837432131 1.71599436635e-94
0.88741635153 0.11077184318 15.2296203949 -1.25427865405 -15.1778826729 0 -16.3563035298 0 -16.5922003324 16.3563035298 -90 -1.25427865405 1.17842085693 1.72101442704 136.786050311 -133.213949689 1.47096367767e-96 -4.47823744228e-102 -5.41906395845e-101 5.43753623359e-101 -94.7241074518 1.70588641314e-94
0.88810589043 0.067946173632 9.81865158058 -1.18440664613 -9.74695335772 0 -10.5899521232 0 -10.4531053489 10.5899521232 -90 -1.18440664613 0.842998765502 1.45377646908 144.558725912 -125.441274088 0.0726223461953 -1.34142587385e-07 -1.10391270329e-06 1.11203304368e-06 -96.9283613921 3.5006120074
0.88810993298 0.069937571482 9.96020899364 -1.18327150375 -9.88965691778 0 -10.7409264983 0 -10.7475744825 10.7409264983 -90 -1.18327150375 0.85126958052 1.45768454234 144.268747428 -125.731252572 0.0494801053829 -9.20868674664e-08 -7.64408012989e-07 7.69935816247e-07 -96.8242925543 2.42314232241
0.88811409543 0.071988030979 10.2973636925 -1.18290753541 -10.2291828847 0 -11.1007735166 0 -11.0497311821 11.1007735166 -90 -1.18290753541 0.871590631875 1.46934819566 143.617392281 -126.382607719 0.0136883706017 -2.62440833398e-08 -2.24942941976e-07 2.26468994735e-07 -96.5975903718 0.712644207001
0.88811838062 0.074098955756 10.5437477346 -1.183032779 -10.4771543855 0 -11.3636114162 0 -11.3596611132 11.3636114162 -90 -1.183032779 0.886457030687 1.4783179389 143.156377454 -126.843622546 0.0039557852473 -7.7480394167e-09 -6.78209925576e-08 6.82621690731e-08 -96.4435651307 0.214954335774
0.88812279147 0.076271779617 10.8419348527 -1.18302028343 -10.7771863395 0 -11.6814805763 0 -11.6774438709 11.6814805763 -90 -1.18302028343 0.904294236786 1.48907193083 142.606914598 -127.393085402 0.000393575416674 -7.91004452783e-10 -7.10704968531e-09 7.15093360368e-09 -96.2655197744 0.0225062468826
0.88812733095 0.078507967146 11.1476000996 -1.18388634616 -11.0845454536 0 -12.0072751153 0 -12.003152292 12.0072751153 -90 -1.18388634616 0.922729661658 1.50102160173 142.06797991 -127.93202009 5.93643136761e-06 -1.22743960425e-11 -1.13340709469e-10 1.14003409709e-10 -96.0974984335 0.000358648609962
0.88813200209 0.080809014332 11.4607995685 -1.18561711485 -11.3992982444 0 -12.3410602062 0 -12.3368517203 12.3410602062 -90 -1.18561711485 0.941761961819 1.51415032199 141.540264782 -128.459735218 3.44326682334e-09 -7.3317847482e-15 -6.95468003112e-14 6.99321996247e-14 -95.9389231331 2.19927110552e-07
0.88813680801 0.083176449198 11.7815825303 -1.18819816525 -11.721503643 0 -12.6828927355 0 -12.6785992228 12.6828927355 -90 -1.18819816525 0.961389092433 1.52844044712 141.024373944 -128.975626056 4.52843990917e-21 -9.93752980547e-27 -9.67442701246e-26 9.72533205817e-26 -95.789244752 3.05824575134e-19
0.88814175185 0.085611832454 12.1099905921 -1.19161454151 -12.0512122068 0 -13.0328204688 0 -13.0284427644 13.0328204688 -90 -1.19161454151 0.981608262059 1.54387336259 140.520826528 -129.479173472 1.03082982453e-32 -2.3324413747e-38 -2.32866068652e-37 2.34031268173e-37 -95.6479424069 7.35823928011e-31
0.88814683687 0.088116758154 12.4460568184 -1.19585073531 -12.3884652958 0 -13.3908811738 0 -13.3864203224 13.3908811738 -90 -1.19585073531 1.00241587798 1.56042947178 140.03005709 -129.96994291 2.41386745702e-49 -5.63437230545e-55 -5.76432054038e-54 5.79179185857e-54 -95.5145224702 1.82067538716e-47
0.88815206637 0.090692854367 12.7898048042 -1.20089065956 -12.7332941986 0 -13.7571016864 0 -13.7525589596 13.7571016864 -90 -1.20089065956 1.02380748786 1.57808817466 139.552417619 -130.447582381 5.70116410727e-69 -1.37327082161e-74 -1.43864324291e-73 1.44518272721e-73 -95.3885175502 4.54137703206e-67
0.88815744371 0.093341783863 13.1412477033 -1.20671761798 -13.085719209 0 -14.1314969271 0 -14.1268738411 14.1314969271 -90 -1.20671761798 1.04577771813 1.59682783823 139.088180395 -130.911819605 1.24802088598e-84 -3.10299054109e-90 -3.32638436182e-89 3.34082601547e-89 -95.2694854523 1.04919555053e-82
0.88816297236 0.096065244812 13.5003872132 -1.21331427085 -13.4457486578 0 -14.5140688674 0 -14.5093671954 14.5140688674 -90 -1.21331427085 1.06832020957 1.61662575874 138.637541566 -131.362458434 2.13035420017e-92 -5.47008596317e-98 -5.99605826488e-97 6.02095786281e-97 -95.1570081288 1.88970989196e-90
0.88816865583 0.098864971496 13.8672125102 -1.22066259724 -13.8133778896 0 -14.9048054391 0 -14.9000272308 14.9048054391 -90 -1.22066259724 1.09142754953 1.63745811563 138.20062533 -131.79937467 5.41938170483e-95 -1.44083971396e-100 -1.61557015783e-99 1.6219826326e-99 -95.0506906328 5.08854678755e-93
0.88817449771 0.10174273503 14.2416991371 -1.2287438541 -14.1885881909 0 -15.3036793924 0 -15.2988269911 15.3036793924 -90 -1.2287438541 1.11509120144 1.6592999175 137.777488575 -132.222511425 4.04377683172e-96 -1.1161708049e-101 -1.28069839741e-100 1.28555338671e-100 -94.9501600808 4.03153814181e-94
0.88818050168 0.1047003441 14.623807846 -1.23753853248 -14.5713456699 0 -15.7106471018 0 -15.7057231605 15.7106471018 -90 -1.23753853248 1.13930143189 1.68212494072 137.368125859 -132.631874141 1.4702857164e-96 -4.24458065272e-102 -4.99840690027e-101 5.01639837031e-101 -94.8550646302 1.57242721936e-94
0.88818667149 0.10773964574 15.0134833939 -1.24702631166 -14.9616000857 0 -16.1256473211 0 -16.1206548229 16.1256473211 -90 -1.24702631166 1.1640472354 1.70590566123 136.97247461 -133.02752539 1.47046203469e-96 -4.39332795807e-102 -5.27168447183e-101 5.28996094818e-101 -94.7650724798 1.65753573809e-94
0.88819301096 0.11086252606 15.207568374 -1.25187342445 -15.1559542236 0 -16.3323390396 0 -16.5435421615 16.3323390396 -90 -1.25187342445 1.17638481602 1.7178673793 136.780602173 -133.219397827 1.47050401021e-96 -4.46820566522e-102 -5.40948539972e-101 5.42790760359e-101 -94.721877279 1.70042342815e-94
0.88888965683 0.068075667674 9.80883582737 -1.18192347965 -9.73736696769 0 -10.5790259824 0 -10.4327523626 10.5790259824 -90 -1.18192347965 0.84165901472 1.45097661264 144.544941811 -125.455058189 0.071310569271 -1.3156189579e-07 -1.08386158122e-06 1.09181705468e-06 -96.92070964 3.43064068815
0.88889342025 0.070065857931 9.95007887104 -1.18080217346 -9.8797499351 0 -10.7296647439 0 -10.7259129127 10.7296647439 -90 -1.18080217346 0.849914808798 1.45488887776 144.255241426 -125.744758574 0.0485300283177 -9.02077995966e-08 -7.49598116974e-07 7.55007471499e-07 -96.8169380729 2.37180153906
0.88889729508 0.072114965967 10.232230124 -1.17904837016 -10.1640582294 0 -11.0305508723 0 -11.0267133182 11.0305508723 -90 -1.17904837016 0.86649264291 1.46322120404 143.688352552 -126.311647448 0.0164236664319 -3.13076987026e-08 -2.67544936203e-07 2.69370759532e-07 -96.6181766612 0.845612177535
0.88890128397 0.074224389307 10.5216839723 -1.17819026012 -10.4554971278 0 -11.3391618594 0 -11.3352385832 11.3391618594 -90 -1.17819026012 0.883664731602 1.47276825222 143.130345779 -126.869654221 0.00367232843202 -7.17386750604e-09 -6.29177735321e-08 6.33254636281e-08 -96.4305838601 0.198678214158
0.88890538961 0.076395555456 10.8185073532 -1.17821671973 -10.7541453412 0 -11.6555765585 0 -11.6515677062 11.6555765585 -90 -1.17821671973 0.901431217318 1.48351690933 142.582099675 -127.417900325 0.000348883091831 -6.99342117033e-10 -6.29572561728e-09 6.33444916012e-09 -96.2535370234 0.0198640628747
0.88890961477 0.07862992251 11.1227619788 -1.1791150078 -11.060075616 0 -11.979867126 0 -11.975772998 11.979867126 -90 -1.1791150078 0.919791510046 1.49545209249 142.044390467 -127.955609533 4.76772927423e-06 -9.83168027323e-12 -9.09569447813e-11 9.14867632854e-11 -96.0864369889 0.000286775815459
0.88891396225 0.080928979768 11.4345035916 -1.18087148016 -11.3733539602 0 -12.3120982917 0 -12.3079193584 12.3120982917 -90 -1.18087148016 0.938744331509 1.50855740567 141.517902834 -128.482097166 2.42693556844e-09 -5.15349141783e-15 -4.8972605763e-14 4.92430158308e-14 -95.9287118512 1.54309701913e-07
0.88891843494 0.083294248367 11.7537811821 -1.18347192681 -11.6940388811 0 -12.6523265895 0 -12.6480635012 12.6523265895 -90 -1.18347192681 0.958287708382 1.52281544972 141.003235409 -128.996764591 2.15237860593e-21 -4.70987216741e-27 -4.59312699637e-26 4.61721178788e-26 -95.7798181478 1.44677975918e-19
0.88892303577 0.085727281921 12.0806361586 -1.18690160631 -12.0221806065 0 -13.0005995336 0 -12.9962531375 13.0005995336 -90 -1.18690160631 0.978418927109 1.53820786202 140.500901748 -129.499098252 3.69328992747e-33 -8.33209678229e-39 -8.33234376187e-38 8.37389940636e-38 -95.6392402347 2.62359479281e-31
0.88892776774 0.088229667175 12.4151014791 -1.1911452253 -12.3578202709 0 -13.3569547508 0 -13.3525261049 13.3569547508 -90 -1.1911452253 0.999134479977 1.5547153048 140.011331378 -129.988668622 6.91178177411e-50 -1.60840225182e-55 -1.64808191001e-54 1.65591170365e-54 -95.5064893299 5.18732738735e-48
0.88893263392 0.090803024673 12.7572007388 -1.19618691284 -12.7009890549 0 -13.7214190627 0 -13.7169094484 13.7214190627 -90 -1.19618691284 1.02043000782 1.5723174445 139.534871808 -130.465128192 1.80070068322e-69 -4.32374306075e-75 -4.53628875047e-74 4.55684794975e-74 -95.3811025184 1.42704569957e-67
0.88893763744 0.093449009437 13.1069472082 -1.20201019056 -13.0517072708 0 -14.0940075099 0 -14.0894184506 14.0940075099 -90 -1.20201019056 1.04230023913 1.59099292273 139.071791386 -130.928208614 6.37354326871e-85 -1.57950897941e-90 -1.69557168702e-89 1.70291275224e-89 -95.2626417377 5.33009348648e-83
0.88894278149 0.09616931166 13.4643428323 -1.20859793902 -13.4099834069 0 -14.4747223335 0 -14.4700556097 14.4747223335 -90 -1.20859793902 1.06473892659 1.61071931924 138.622282867 -131.377717133 1.70067768472e-92 -4.35230070198e-98 -4.77696798427e-97 4.79675397069e-97 -95.1506927509 1.50058185815e-90
0.88894806934 0.098965657413 13.8293771787 -1.21593236062 -13.7758131175 0 -14.8635518977 0 -14.8588095633 14.8635518977 -90 -1.21593236062 1.08773878027 1.63147310657 138.186467571 -131.813532429 4.99501299966e-95 -1.32361186297e-100 -1.48601042525e-99 1.49189374203e-99 -95.0448641229 4.66558868022e-93
0.88895350432 0.10183980936 14.2020263416 -1.22399493941 -14.1491781654 0 -15.2604695637 0 -15.2556539627 15.2604695637 -90 -1.22399493941 1.11129139829 1.65322959711 137.764399999 -132.235600001 3.9403591141e-96 -1.08383636834e-101 -1.24502726981e-100 1.24973622179e-100 -94.9447862029 3.90712186217e-94
0.88895908983 0.1047935675 14.5822517962 -1.23276639812 -14.5300453137 0 -15.6654325084 0 -15.6605462944 15.6654325084 -90 -1.23276639812 1.13538719469 1.67596288254 137.356072783 -132.643927217 1.44670803242e-96 -4.16117353811e-102 -4.90516948624e-101 4.92278955613e-101 -94.8501101237 1.53849904042e-94
0.88896482935 0.1078287699 14.9699992131 -1.24222665313 -14.9183651724 0 -16.078380498 0 -16.0734266486 16.078380498 -90 -1.24222665313 1.16001532559 1.69964576702 136.961421849 -133.038578151 1.44688018832e-96 -4.30647954081e-102 -5.17240458084e-101 5.19030272903e-101 -94.7605068202 1.62159324928e-94
0.88897072644 0.11094729348 15.2905052133 -1.24978239216 -15.2393398288 0 -16.4195341559 0 -16.4942164422 16.4195341559 -90 -1.24978239216 1.18019432715 1.71896591321 136.64142343 -133.35857657 1.43908607864e-96 -4.40443856628e-102 -5.37079148897e-101 5.3888223554e-101 -94.6888137449 1.68227158717e-94
0.8889767847 0.11415105476 15.5386399809 -1.25508696772 -15.4878690968 0 -16.6834525947 0 -16.9228170929 16.6834525947 -90 -1.25508696772 1.19558349791 1.73339643389 136.390896082 -133.609103918 1.42382146791e-96 -4.45277837976e-102 -5.49476254924e-101 5.51277496598e-101 -94.6329414628 1.71890371481e-94
0.8896718654 0.066262236571 9.50833320958 -1.17753219989 -9.43513743104 0 -10.2570915786 0 -10.1263331137 10.2570915786 -90 -1.17753219989 0.821954147518 1.436032974 145.083759375 -124.916240625 0.157585243208 -2.82119816736e-07 -2.26052352808e-06 2.27806018621e-06 -97.1138949456 7.12351488445
0.88967521106 0.068194042384 9.69681622313 -1.17715397633 -9.62508611182 0 -10.4584689826 0 -10.4107287994 10.4584689826 -90 -1.17715397633 0.83338287073 1.44231167398 144.703661647 -125.296338353 0.0979051597107 -1.77594908236e-07 -1.44377883373e-06 1.45466293065e-06 -96.9739992158 4.5510838224
0.88967865617 0.070183266826 9.92908033484 -1.17587509197 -9.859190738 0 -10.7063563094 0 -10.7026284419 10.7063563094 -90 -1.17587509197 0.847165571395 1.44928390025 144.229668472 -125.770331528 0.0467760942291 -8.67238787642e-08 -7.22143612531e-07 7.27333346785e-07 -96.8027753656 2.27628940931
0.88968220307 0.072231272267 10.2100059803 -1.17416969783 -10.1422509179 0 -11.0059345494 0 -11.002121719 11.0059345494 -90 -1.17416969783 0.863683631512 1.45762650526 143.663766209 -126.336233791 0.0156716610836 -2.97942122593e-08 -2.55104539464e-07 2.56838756112e-07 -96.6050725526 0.803274357618
0.88968585419 0.074339450289 10.4981897025 -1.17335347973 -10.4323991395 0 -11.3131907686 0 -11.3092929927 11.3131907686 -90 -1.17335347973 0.880791629149 1.46717496251 143.106775439 -126.893224561 0.00343592688251 -6.69355271512e-09 -5.88130566511e-08 5.91927563117e-08 -96.4184590465 0.185028043484
0.88968961199 0.076509222269 10.79369798 -1.17341543717 -10.7297134917 0 -11.6282032411 0 -11.6242206807 11.6282032411 -90 -1.17341543717 0.898489749448 1.47791629696 142.559566889 -127.440433111 0.000313173771557 -6.26035224313e-10 -5.64611381336e-09 5.68071522385e-09 -96.2423178946 0.0177489776931
0.88969347897 0.078742039987 11.0965921153 -1.17434299004 -11.0342661584 0 -11.9510436126 0 -11.9469765846 11.9510436126 -90 -1.17434299004 0.916777454191 1.48983560446 142.022909842 -127.977090158 3.91594511946e-06 -8.05261592625e-12 -7.46307254438e-11 7.50639052533e-11 -96.076055438 0.000234445070646
0.88969745771 0.081039386234 11.4069275026 -1.17612267823 -11.3461226578 0 -12.2817761824 0 -12.2776251703 12.2817761824 -90 -1.17612267823 0.935653524632 1.50291669455 141.497482787 -128.502517213 1.77522270262e-09 -3.75875788864e-15 -3.57795045326e-14 3.59763980199e-14 -95.9191050064 1.12332745517e-07
0.88970155082 0.083402775437 11.7247528509 -1.17874048151 -11.6653410854 0 -12.6204571385 0 -12.6162228077 12.6204571385 -90 -1.17874048151 0.95511605301 1.51714238489 140.98387867 -129.01612133 1.1098473309e-21 -2.42135605776e-27 -2.3652028646e-26 2.37756477805e-26 -95.7709280274 7.42338404889e-20
0.889705761 0.0858337543 12.0501093694 -1.18218184921 -11.991971352 0 -12.9671337498 0 -12.9628169587 12.9671337498 -90 -1.18218184921 0.975162397871 1.53249453708 140.48260579 -129.51739421 1.48736863634e-33 -3.3451999679e-39 -3.35053449586e-38 3.36719246355e-38 -95.6310133921 1.05122916999e-31
0.88971009096 0.088333902448 12.3830299062 -1.18643168007 -12.3260543746 0 -13.3218435052 0 -13.3174453224 13.3218435052 -90 -1.18643168007 0.995789130663 1.54895404511 139.994088874 -130.005911126 2.29798981396e-50 -5.33055383026e-56 -5.47020238081e-55 5.49611337545e-55 -95.4988765215 1.71569385059e-48
0.88971454352 0.090904833093 12.7235380475 -1.19147429712 -12.6676212264 0 -13.6846132056 0 -13.6801349221 13.6846132056 -90 -1.19147429712 1.01699197922 1.56650081535 139.518671106 -130.481328894 6.6056809726e-70 -1.58092878731e-75 -1.66098348851e-74 1.66849019064e-74 -95.3740583916 5.20711520924e-68
0.88971912151 0.093548193706 13.0716471704 -1.19729341843 -13.0166922368 0 -14.0554580048 0 -14.0509011526 14.0554580048 -90 -1.19729341843 1.03876576798 1.58511373819 139.056616975 -130.943383025 3.59955579109e-85 -8.89056330304e-91 -9.55644103844e-90 9.59770737033e-90 -95.2561245377 2.99394559619e-83
0.88972382786 0.096265666702 13.4273594527 -1.20387212406 -13.373276045 0 -14.4343804002 0 -14.4297467644 14.4343804002 -90 -1.20387212406 1.06110435521 1.60477065163 138.608115847 -131.391884153 1.41349060468e-92 -3.60499994501e-98 -3.9616330214e-97 3.97800159316e-97 -95.1446640475 1.24037896225e-90
0.88972866554 0.099058970147 13.7906648338 -1.2111928195 -13.7373686023 0 -14.8213691695 0 -14.8166608074 14.8213691695 -90 -1.2111928195 1.08400056713 1.62544829662 138.173286107 -131.826713893 4.65762469746e-95 -1.23000398148e-100 -1.38258906169e-99 1.38804972223e-99 -95.0392885545 4.32701116105e-93
0.88973363758 0.10192985846 14.1615399326 -1.21923719621 -14.108952128 0 -15.2163982576 0 -15.2116175149 15.2163982576 -90 -1.21923719621 1.10744612954 1.647122265 137.752179758 -132.247820242 3.85282528134e-96 -1.05595765339e-101 -1.21432994052e-100 1.21891277046e-100 -94.9396312394 3.79889570308e-94
0.8897387471 0.10488012317 14.5399469183 -1.22798618941 -14.487994016 0 -15.6194256129 0 -15.6145751419 15.6194256129 -90 -1.22798618941 1.1314315969 1.66976694006 137.344787341 -132.655212659 1.42352871833e-96 -4.07897988391e-102 -4.81306137441e-101 4.83031629665e-101 -94.8453458445 1.50500817272e-94
0.88974399725 0.1079115936 14.9258323362 -1.23741993374 -14.8744456936 0 -16.0303919729 0 -16.0254747469 16.0303919729 -90 -1.23741993374 1.1559462793 1.6933554306 136.951043077 -133.048956923 1.42369443548e-96 -4.22093263459e-102 -5.07439971148e-101 5.09192596723e-101 -94.7561057089 1.58613152484e-94
0.88974939128 0.11102613769 15.3191258871 -1.24751771746 -15.2682414315 0 -16.4492195993 0 -16.4442389328 16.4492195993 -90 -1.24751771746 1.18097816779 1.71785949925 136.570830127 -133.429169873 1.42374592386e-96 -4.36895951319e-102 -5.34774458767e-101 5.36556288642e-101 -94.6716028296 1.67087705059e-94
0.88975493249 0.11422566272 15.5149937415 -1.25265968924 -15.4643420239 0 -16.6577967683 0 -16.8707705349 16.6577967683 -90 -1.25265968924 1.19345474443 1.73017066839 136.386489179 -133.613510821 1.42375758192e-96 -4.44354562988e-102 -5.48564833699e-101 5.50361596487e-101 -94.631021836 1.71360346653e-94
0.89045643255 0.064494828091 9.22532002031 -1.17643069892 -9.15000220152 0 -9.95418643541 0 -9.82797500705 9.95418643541 -90 -1.17643069892 0.804184233897 1.42502683182 145.644278162 -124.355721838 0.339662997965 -5.91136272434e-07 -4.59771935495e-06 4.63556526861e-06 -97.3264180219 14.4537694743
0.89045934834 0.066370068812 9.40849527018 -1.17549554425 -9.33475813351 0 -10.1499584179 0 -10.1038350482 10.1499584179 -90 -1.17549554425 0.815200284394 1.43051951518 145.259589061 -124.740410939 0.215824262201 -3.80592361046e-07 -3.00561143526e-06 3.02961786031e-06 -97.1786839302 9.45102647379
0.89046235114 0.068301275754 9.63398192369 -1.1735156655 -9.56222476605 0 -10.3906823464 0 -10.387061279 10.3906823464 -90 -1.1735156655 0.828457580323 1.43650037848 144.77999112 -125.22000888 0.110599665404 -1.99353709679e-07 -1.61461586078e-06 1.62687872074e-06 -96.9980778865 5.07624495889
0.89046544304 0.070289777226 9.90658275903 -1.17096259242 -9.83711955358 0 -10.6814525792 0 -10.6777473788 10.6814525792 -90 -1.17096259242 0.844333025661 1.44364232804 144.206917239 -125.793082761 0.0453009980234 -8.3761678244e-08 -6.98819678838e-07 7.0382258182e-07 -96.7896712464 2.19438858909
0.89046862613 0.072336929999 10.1863281396 -1.16930119194 -10.1189785075 0 -10.9797717805 0 -10.97598235 10.9797717805 -90 -1.16930119194 0.860793272983 1.45199204894 143.641813304 -126.358186696 0.0150412735728 -2.8515625989e-08 -2.44597834058e-07 2.46254653564e-07 -96.5929151901 0.767292264084
0.89047190257 0.074444119874 10.4732885352 -1.16852297378 -10.4078842224 0 -11.2857235574 0 -11.2818499308 11.2857235574 -90 -1.16852297378 0.877839334983 1.4615393849 143.085654684 -126.914345316 0.00324137664987 -6.29639667003e-09 -5.54186228271e-08 5.57751828558e-08 -96.4071798408 0.173699436685
0.89047527457 0.076612762271 10.7675299689 -1.16861704349 -10.7039141869 0 -11.5993856216 0 -11.5954279738 11.5993856216 -90 -1.16861704349 0.895471434771 1.4722714775 142.539305098 -127.460694902 0.000284927755579 -5.67932746756e-10 -5.1308746946e-09 5.16221133562e-09 -96.2318530228 0.01606975904
0.89047874436 0.078844302825 11.0691133354 -1.16957096105 -11.00714004 0 -11.9208291206 0 -11.9167877832 11.9208291206 -90 -1.16957096105 0.913689080605 1.48417357621 142.003527546 -127.996472454 3.29412768167e-06 -6.75411545007e-12 -6.27006716587e-11 6.30633994038e-11 -96.0663457141 0.000196248258008
0.89048231425 0.081140217991 11.3780936801 -1.17137142676 -11.3176268245 0 -12.250117932 0 -12.2459934017 12.250117932 -90 -1.17137142676 0.932491107561 1.49722966853 141.478994835 -128.521005165 1.34989833265e-09 -2.84960916497e-15 -2.71686412088e-14 2.73176745368e-14 -95.9100956663 8.49896016896e-08
0.89048598658 0.083502015672 11.6945194319 -1.17400458634 -11.6354322398 0 -12.5873079077 0 -12.5831008613 12.5873079077 -90 -1.17400458634 0.951875667847 1.51142276122 140.966294616 -129.033705384 6.2273669798e-22 -1.35440768798e-27 -1.32503560641e-26 1.3319397768e-26 -95.7625684454 4.14375320458e-20
0.89048976374 0.085931235841 12.0184315964 -1.17745605672 -11.9606058868 0 -12.932446073 0 -12.9281573807 12.932446073 -90 -1.17745605672 0.97184018621 1.52673491278 140.46593024 -129.53406976 6.75416561572e-34 -1.51419948991e-39 -1.51885394638e-38 1.5263830846e-38 -95.6232567923 4.74838108453e-32