TITLE = "Electromagnetic Field"
VARIABLES = X Y E ER EI EvR EvI EvR' EvI' Ev EvPhase EpR EpI Ep EpPhase EpToEvPhaseShift elConductivity Jr Ji J Jphase QJ
ZONE N=211, E=182, F=FEPOINT, ET=QUADRILATERAL
1 0.16 13.3125745424 -0.851469477313 -13.2853167323 0 -14.2289327275 0 -14.1366074293 14.2289327275 -90 -0.851469477313 0.943615995288 1.2709883624 132.061434318 -137.938565682 1.40723623017e-96 -4.8186674261e-101 -7.51847537566e-100 7.53390121597e-100 -93.6671292343 1.2469846781e-94
0.99072829456 0.16 13.5423406994 -0.869208269804 -13.5144167053 0 -14.4757124284 0 -14.6641185057 14.4757124284 -90 -0.869208269804 0.96129572319 1.29599934855 132.118840596 -137.881159404 1.40723622978e-96 -4.73465718395e-101 -7.3624762671e-100 7.3776845585e-100 -93.6797976283 1.29080256087e-94
0.9821648128 0.16 14.0130137724 -0.905534853952 -13.9837245829 0 -14.9812884714 0 -15.1747049647 14.9812884714 -90 -0.905534853952 0.997563888522 1.34726706851 132.230514812 -137.769485188 1.407236238e-96 -4.55498162931e-101 -7.03493261897e-100 7.04966365506e-100 -93.7048966604 1.38203190947e-94
0.97425953371 0.16 14.4669422275 -0.940532674607 -14.4363363957 0 -15.4689791123 0 -15.6671162893 15.4689791123 -90 -0.940532674607 1.03264271662 1.39676549592 132.326542761 -137.673457239 1.40723625205e-96 -4.36658930575e-101 -6.70309312618e-100 6.71730079873e-100 -93.7274103599 1.47296715767e-94
0.96696580531 0.16 14.9031947748 -0.974109345062 -14.871325409 0 -15.9377692522 0 -16.1403384256 15.9377692522 -90 -0.974109345062 1.0664438432 1.44436573762 132.408543116 -137.591456884 1.40723626402e-96 -4.17179069861e-101 -6.36955327367e-100 6.3832004817e-100 -93.7475290452 1.56309260472e-94
0.96024012483 0.16 15.3210505692 -1.00620061162 -15.2879738944 0 -16.3868700225 0 -16.5935861594 16.3868700225 -90 -1.00620061162 1.09889612815 1.48997082414 132.478199571 -137.521800429 1.40723627694e-96 -3.97277000809e-101 -6.03668480884e-100 6.04974324125e-100 -93.7654633799 1.65192774102e-94
0.95404193298 0.16 15.7199883198 -1.03676638825 -15.6857624615 0 -16.8157080964 0 -17.0262920385 16.8157080964 -90 -1.03676638825 1.12994563482 1.53351302557 132.537145865 -137.462854135 1.40723628718e-96 -3.77154263476e-101 -5.70662335892e-100 5.71907300679e-100 -93.7814296717 1.73903309677e-94
0.94833342131 0.16 16.0996736928 -1.06578659697 -16.0643577036 0 -17.2239122732 0 -17.4380925821 17.2239122732 -90 -1.06578659697 1.15955456961 1.57495024002 132.586896691 -137.413103309 1.40723629612e-96 -3.56992783913e-101 -5.38126322248e-100 5.39309170237e-100 -93.7956379326 1.82401462656e-94
0.94307935184 0.16 16.4599449633 -1.09325758663 -16.4235980568 0 -17.6112980323 0 -17.8288124827 17.6112980323 -90 -1.09325758663 1.1876999755 1.6142625783 132.62881348 -137.37118652 1.4072363028e-96 -3.36953594136e-101 -5.06225770296e-100 5.07345947567e-100 -93.8082845674 1.90652651963e-94
0.93824688834 0.16 16.8007974177 -1.11918917579 -16.7634783697 0 -17.9778507121 0 -18.1984474462 17.9778507121 -90 -1.11918917579 1.21437234241 1.65144930634 132.66409364 -137.33590636 1.40723630766e-96 -3.17176651073e-101 -4.75102427527e-100 4.7615998241e-100 -93.8195486845 1.98627256939e-94
0.9338054383 0.16 17.1223670148 -1.14360222621 -17.0841336961 0 -18.3237078888 0 -18.547146277 18.3237078888 -90 -1.14360222621 1.2395741927 1.68652613056 132.693774195 -137.306225805 1.40723631088e-96 -2.97781410503e-101 -4.44875363601e-100 4.458708649e-100 -93.829590859 2.06300623186e-94
0.92972650512 0.16 17.4249137897 -1.16652663778 -17.385822803 0 -18.6491414792 0 -18.8751927089 18.6491414792 -90 -1.16652663778 1.26331867614 1.71952277985 132.718743367 -137.281256633 1.40723631249e-96 -2.78867888803e-101 -4.15642172594e-100 4.16576631087e-100 -93.838553412 2.13652956811e-94
0.92598354977 0.16 17.7088053996 -1.18799966853 -17.6689117976 0 -18.9545399952 0 -19.1829874236 18.9545399952 -90 -1.18799966853 1.28562819768 1.75048083694 132.739755879 -137.260244121 1.4072363131e-96 -2.60518029547e-101 -3.8748040695e-100 3.88355201918e-100 -93.846561548 2.20669125971e-94
0.9225518613 0.16 17.9745011394 -1.20806450584 -17.9338582084 0 -19.2403913052 0 -19.4710306166 19.2403913052 -90 -1.20806450584 1.30653309681 1.77945178241 132.757449342 -137.242550658 1.40723631257e-96 -2.42797229583e-101 -3.60449157522e-100 3.61265969274e-100 -93.8537249098 2.27338389084e-94
0.91940843578 0.16 18.2225366992 -1.22676903549 -18.1811957957 0 -19.5072661897 0 -19.7399053764 19.5072661897 -90 -1.22676903549 1.32607039392 1.8064952261 132.77236022 -137.22763978 1.40723631157e-96 -2.25755935604e-101 -3.34590725721e-100 3.35351474538e-100 -93.860139279 2.33654069082e-94
0.91653186296 0.16 18.3473493821 -1.23617444682 -18.3056576523 0 -19.6415650159 0 -19.9902620993 19.6415650159 -90 -1.23617444682 1.33590736354 1.82010322426 132.779458673 -137.220541327 1.40723631021e-96 -2.17046807578e-101 -3.21409697819e-100 3.22141718843e-100 -93.8632978746 2.36855622836e-94
1 0.11462301686 10.1111843253 -0.715767444981 -10.0858180345 0 -10.8178927316 0 -10.4795194131 10.8178927316 -90 -0.715767444981 0.732074697092 1.02384393216 134.354696767 -135.645303233 1.40720355136e-96 -3.04892504452e-101 -4.29621428239e-100 4.3070194566e-100 -94.0593447454 7.19334652359e-95
1 0.11788782946 10.2459184026 -0.721296990321 -10.2204970153 0 -10.9615154688 0 -10.7553396678 10.9615154688 -90 -0.721296990321 0.74101845347 1.03410963825 134.22854918 -135.77145082 1.40721457638e-96 -3.11433183103e-101 -4.41320271749e-100 4.42417808274e-100 -94.0371588522 7.38763354222e-95
1 0.12123972958 10.5145110175 -0.73236803388 -10.4889734598 0 -11.2478158884 0 -11.0366198777 11.2478158884 -90 -0.73236803388 0.758842428635 1.05461350591 133.984078842 -136.015921158 1.40722891565e-96 -3.24633823448e-101 -4.64972532638e-100 4.66104447827e-100 -93.9943315732 7.78009925197e-95
1 0.12468067527 10.7882813492 -0.74374347036 -10.7626133392 0 -11.539611633 0 -11.3233288837 11.539611633 -90 -0.74374347036 0.776998293781 1.07558607861 133.748424157 -136.251575843 1.40723347208e-96 -3.38417299442e-101 -4.897516867e-100 4.9091955222e-100 -93.953360024 8.19052816191e-95
1 0.1282126651 11.0671876554 -0.755416354561 -11.0413755938 0 -11.836856632 0 -11.6154242205 11.836856632 -90 -0.755416354561 0.795481038238 1.09701800625 133.521294673 -136.478705327 1.40723489755e-96 -3.52805308801e-101 -5.15703007484e-100 5.16908442289e-100 -93.9141426043 8.6194855535e-95
1 0.13183773888 11.3511765584 -0.767379176385 -11.3252075127 0 -12.1394923169 0 -11.9128513088 12.1394923169 -90 -0.767379176385 0.814284804169 1.11889898715 133.302402449 -136.697597551 1.40723539095e-96 -3.67818842754e-101 -5.42871285701e-100 5.44115952972e-100 -93.876583389 9.06750190343e-95
1 0.13555797851 11.6401822344 -0.779623819731 -11.6140439273 0 -12.4474467688 0 -12.2155426295 12.4474467688 -90 -0.779623819731 0.833402841538 1.14121770397 133.091462756 -136.908537244 1.40723561021e-96 -3.83478715764e-101 -5.71301547698e-100 5.72587153731e-100 -93.8405918147 9.53508217843e-95
1 0.1393755088 11.934125577 -0.792141528715 -11.9078063766 0 -12.7606338455 0 -12.5234168678 12.7606338455 -90 -0.792141528715 0.852827468867 1.16396176898 132.888194742 -137.111805258 1.40723575951e-96 -3.99805731886e-101 -6.01039266801e-100 6.02367560539e-100 -93.8060824214 1.00227065607e-94
1 0.14329249833 12.2329133227 -0.804922885747 -12.2064022351 0 -13.0789522799 0 -12.8363780332 13.0789522799 -90 -0.804922885747 0.872550044802 1.18711768541 132.692322056 -137.307677944 1.40723587852e-96 -4.16820698858e-101 -6.32130353744e-100 6.33503126419e-100 -93.7729746659 1.0530827313e-94
1 0.14731116027 12.5364371377 -0.817957812051 -12.5097237988 0 -13.4022847612 0 -13.1543145549 13.4022847612 -90 -0.817957812051 0.892560962378 1.21067084074 132.503573458 -137.496426542 1.40723599334e-96 -4.34544414829e-101 -6.64621081218e-100 6.66040166063e-100 -93.7411928455 1.10598642977e-94
1 0.15143375329 12.8445726391 -0.831235611967 -12.8176473034 0 -13.7304969925 0 -13.4770983633 13.7304969925 -90 -0.831235611967 0.912849689044 1.23460556334 132.321683428 -137.678316572 1.4072360957e-96 -4.52997643224e-101 -6.98557947605e-100 7.00025219675e-100 -93.7106662166 1.16101992979e-94
1 0.15566258242 13.1571783155 -0.84474510877 -13.1300318364 0 -14.0634367407 0 -13.8045839509 14.0634367407 -90 -0.84474510877 0.933404904275 1.25890531296 132.14639289 -137.85360711 1.40723619989e-96 -4.72201152254e-101 -7.33987536349e-100 7.35504912858e-100 -93.6813294933 1.21821700314e-94
0.91653186296 0.14329249833 17.1053133294 -1.1917852086 -17.0637449616 0 -18.3200377441 0 -18.2188757963 18.3200377441 -90 -1.1917852086 1.25629278247 1.73165341184 133.490588669 -136.509411331 1.40723624873e-96 -1.93875017901e-101 -2.77586417082e-100 2.78262635246e-100 -93.9952281825 2.05872854188e-94
0.91653186296 0.14731116027 17.3125354593 -1.19910508529 -17.2709577776 0 -18.5405525017 0 -18.6540920802 18.5405525017 -90 -1.19910508529 1.2695947241 1.74634989002 133.365484474 -136.634515526 1.40723627343e-96 -1.97635599533e-101 -2.84679766434e-100 2.85364995886e-100 -93.9718868263 2.10920613269e-94
0.91653186296 0.15143375329 17.7242231821 -1.21373754833 -17.6826152599 0 -18.9786189337 0 -19.0946083997 18.9786189337 -90 -1.21373754833 1.29600367379 1.77561195886 133.123573155 -136.876426845 1.40723628156e-96 -2.05211445312e-101 -2.98988347778e-100 2.99691779437e-100 -93.9268890481 2.21070453841e-94
0.91653186296 0.15566258242 18.1406510415 -1.22870627179 -18.0989905002 0 -19.4216682026 0 -19.5401125617 19.4216682026 -90 -1.22870627179 1.32267770249 1.8053277292 132.891602407 -137.108397593 1.4072362884e-96 -2.13085901103e-101 -3.13899597321e-100 3.1462203742e-100 -93.8839848461 2.31579758224e-94
0.91940843578 0.11144337341 13.4961377416 -1.06456925154 -13.4540858571 0 -14.4744917152 0 -14.3902473023 14.4744917152 -90 -1.06456925154 1.02040585816 1.47463073571 136.213442649 -133.786557351 1.40721914925e-96 -1.49732905545e-101 -1.89233285097e-100 1.89824749752e-100 -94.5241650626 1.28159482378e-94
0.91940843578 0.11462301686 13.6741716158 -1.06970508373 -13.6322641054 0 -14.6641127925 0 -14.7635353799 14.6641127925 -90 -1.06970508373 1.0318486871 1.48627114822 136.033361097 -133.966638903 1.40722546109e-96 -1.52507168434e-101 -1.94375277159e-100 1.94972685591e-100 -94.487196394 1.31585332579e-94
0.91940843578 0.11788782946 14.0288451896 -1.0801229983 -13.9871998678 0 -15.0418568555 0 -15.1437244185 15.0418568555 -90 -1.0801229983 1.05465698773 1.5096315203 135.684798321 -134.315201679 1.4072334139e-96 -1.58109631379e-101 -2.04767372839e-100 2.05376918981e-100 -94.4161859035 1.38500274092e-94
0.91940843578 0.12123972958 14.3899072492 -1.09108508128 -14.3484806315 0 -15.4263777402 0 -15.530721688 15.4263777402 -90 -1.09108508128 1.07789710879 1.53373666683 135.34967904 -134.65032096 1.40723557231e-96 -1.63966172781e-101 -2.1564755687e-100 2.16270046675e-100 -94.3489228906 1.45721063883e-94
0.91940843578 0.12468067527 14.7572579761 -1.10257207416 -14.7160094433 0 -15.817566119 0 -15.9244158891 15.817566119 -90 -1.10257207416 1.10155667572 1.55856046065 135.02766928 -134.97233072 1.4072361121e-96 -1.70085387116e-101 -2.27034188262e-100 2.27670437729e-100 -94.2851730971 1.53255726806e-94
0.91940843578 0.1282126651 15.1307794932 -1.1145638045 -15.0896711422 0 -16.2152931144 0 -16.3246759738 16.2152931144 -90 -1.1145638045 1.12562197217 1.58407539027 134.718410895 -135.281589105 1.40723624245e-96 -1.76475512706e-101 -2.38945450717e-100 2.39596284656e-100 -94.2247159733 1.61111612691e-94
0.91940843578 0.13183773888 15.5103347171 -1.12703915732 -15.4693312255 0 -16.6194091011 0 -16.7313499239 16.6194091011 -90 -1.12703915732 1.15007787561 1.6102524901 134.421526499 -135.578473501 1.40723626564e-96 -1.83144609639e-101 -2.513995602e-100 2.52065811737e-100 -94.167344023 1.6929548671e-94
0.91940843578 0.13555797851 15.8957661777 -1.13997604634 -15.8548346811 0 -17.0297424736 0 -17.1442635169 17.0297424736 -90 -1.13997604634 1.17490779257 1.63706126865 134.136624034 -135.863375966 1.40723627329e-96 -1.90100600658e-101 -2.64414801592e-100 2.65097311858e-100 -94.112862171 1.77813499577e-94
0.91940843578 0.1393755088 16.286894827 -1.1533513859 -16.2460048084 0 -17.4460984034 0 -17.5632190703 17.4460984034 -90 -1.1533513859 1.20009359503 1.66446963643 133.86330096 -136.13669904 1.4072362729e-96 -1.97351252772e-101 -2.7800949088e-100 2.78709108649e-100 -94.0610871515 1.86671106643e-94
0.91940843578 0.14329249833 16.8170873699 -1.17494505941 -16.7759915664 0 -18.0113215992 0 -17.9879941757 18.0113215992 -90 -1.17494505941 1.23533003288 1.70486022649 133.566137517 -136.433862483 1.40723626833e-96 -2.01411583282e-101 -2.87573667074e-100 2.8827814998e-100 -94.0065843086 1.99039608819e-94
0.91940843578 0.14731116027 17.1939399833 -1.18981831238 -17.1527215345 0 -18.4128429402 0 -18.4183404222 18.4128429402 -90 -1.18981831238 1.26012140565 1.73308613012 133.357270013 -136.642729987 1.40723627663e-96 -2.05536486077e-101 -2.96339954203e-100 2.97051906885e-100 -93.9682803763 2.08049888314e-94
0.91940843578 0.15143375329 17.6031339952 -1.20440342647 -17.5618818093 0 -18.8482656841 0 -18.8539821322 18.8482656841 -90 -1.20440342647 1.28638387484 1.76221007735 133.115808387 -136.884191613 1.40723628357e-96 -2.13427381625e-101 -3.11240532627e-100 3.11971466806e-100 -93.9234669571 2.18069623701e-94
0.91940843578 0.15566258242 18.0170686027 -1.21932445442 -17.9757604826 0 -19.288672815 0 -19.2946151022 19.288672815 -90 -1.21932445442 1.3129123324 1.79178780224 132.884284364 -137.115715636 1.40723628932e-96 -2.21629879736e-101 -3.26769393513e-100 3.2752015066e-100 -93.8807402575 2.28445138307e-94
0.9225518613 0.11144337341 13.3937894368 -1.05498116277 -13.3521761551 0 -14.3639150219 0 -14.1881266813 14.3639150219 -90 -1.05498116277 1.01173886679 1.46171164097 136.198512502 -133.801487498 1.40721835488e-96 -1.55427076026e-101 -1.9672542374e-100 1.97338461961e-100 -94.5176186187 1.2622973246e-94
0.9225518613 0.11462301686 13.5705538514 -1.06010214898 -13.5290812392 0 -14.5521872098 0 -14.5565239033 14.5521872098 -90 -1.06010214898 1.02310597057 1.47328997281 136.018680083 -133.981319917 1.40722493701e-96 -1.58311825166e-101 -2.02072244798e-100 2.02691478384e-100 -94.4808096425 1.29605572467e-94
0.9225518613 0.11788782946 13.9227064987 -1.07048910079 -13.8814890231 0 -14.9272527851 0 -14.9317622062 14.9272527851 -90 -1.07048910079 1.04576376198 1.49652555965 135.67061969 -134.32938031 1.40723323773e-96 -1.64137565705e-101 -2.12878440341e-100 2.13510324428e-100 -94.4101075157 1.36419752463e-94
0.9225518613 0.12123972958 14.2812187158 -1.08141707173 -14.2402133855 0 -15.3090648315 0 -15.3137529709 15.3090648315 -90 -1.08141707173 1.06885144606 1.52050167897 135.336021747 -134.663978253 1.4072355015e-96 -1.70227845426e-101 -2.24192474703e-100 2.24837847581e-100 -94.3431397022 1.43535714691e-94
0.9225518613 0.12468067527 14.6459929081 -1.09286705388 -14.6051595578 0 -15.6975164543 0 -15.7023894256 15.6975164543 -90 -1.09286705388 1.09235689645 1.54519259191 135.014548375 -134.985451625 1.40723607295e-96 -1.7659165812e-101 -2.36033511567e-100 2.36693222238e-100 -94.2796726111 1.5096144163e-94
0.9225518613 0.1282126651 15.0169136402 -1.10481913252 -14.9762147841 0 -16.0924814441 0 -16.0975454861 16.0924814441 -90 -1.10481913252 1.11626665995 1.57057119037 134.705837729 -135.294162271 1.40723621461e-96 -1.83237618122e-101 -2.48420522227e-100 2.49095429083e-100 -94.2194863135 1.58704247103e-94
0.9225518613 0.13183773888 15.3938464981 -1.11725245836 -15.3532471963 0 -16.4938130889 0 -16.4990745526 16.4938130889 -90 -1.11725245836 1.14056589257 1.59660892811 134.409508946 -135.590491054 1.4072362436e-96 -1.90174153375e-101 -2.61372511827e-100 2.62063482121e-100 -94.1623738929 1.66770871732e-94
0.9225518613 0.13555797851 15.7766369189 -1.13014521953 -15.7361046569 0 -16.901342952 0 -16.9068082949 16.901342952 -90 -1.13014521953 1.16523829512 1.62327574968 134.125166734 -135.874833266 1.40723625564e-96 -1.9740955107e-101 -2.74908561537e-100 2.75616471061e-100 -94.1081408183 1.75167456126e-94
0.9225518613 0.1393755088 16.1651090088 -1.14347461422 -16.1246135888 0 -17.3148796387 0 -17.3205554145 17.3148796387 -90 -1.14347461422 1.19026604996 1.65054001891 133.852405578 -136.147594422 1.40723625894e-96 -2.04951939685e-101 -2.8904779092e-100 2.89773523633e-100 -94.0566043371 1.83899462231e-94
0.9225518613 0.14329249833 16.5590643433 -1.15721682383 -16.5185777857 0 -17.7342075445 0 -17.7401003946 17.7342075445 -90 -1.15721682383 1.21562975875 1.67836844739 133.590813549 -136.409186451 1.40723626682e-96 -2.12809259892e-101 -3.03809300482e-100 3.04553748051e-100 -94.0075928894 1.92971580439e-94
0.9225518613 0.14731116027 16.9582807648 -1.1713469877 -16.9177772202 0 -18.1590856029 0 -18.1652022398 18.1590856029 -90 -1.1713469877 1.24130838269 1.70672602472 133.339975734 -136.660024266 1.40723627194e-96 -2.20989224132e-101 -3.19212098267e-100 3.1997615949e-100 -93.9609455456 2.02387623262e-94
0.9225518613 0.15143375329 17.3625111749 -1.18583917958 -17.3219668437 0 -18.5892460291 0 -18.5955932252 18.5892460291 -90 -1.18583917958 1.26727918545 1.73557595122 133.099477278 -136.900522722 1.40723628051e-96 -2.29499276872e-101 -3.35275021362e-100 3.36059601476e-100 -93.9165114668 2.12150414881e-94
0.9225518613 0.15566258242 17.7714823412 -1.20066638723 -17.7308754021 0 -19.0243930828 0 -19.0309776493 19.0243930828 -90 -1.20066638723 1.29351768068 1.76487957544 132.868906061 -137.131093939 1.40723628778e-96 -2.3834654871e-101 -3.52016647054e-100 3.52822656911e-100 -93.8741493898 2.22261672742e-94
0.92598354977 0.11144337341 13.1906541607 -1.03589757093 -13.1499152359 0 -14.1444616239 0 -13.9717595993 14.1444616239 -90 -1.03589757093 0.994546387997 1.43603847034 136.166539228 -133.833460772 1.40721677344e-96 -1.66519198097e-101 -2.11397746588e-100 2.12052574589e-100 -94.5041731669 1.22430904998e-94
0.92598354977 0.11462301686 13.3648965056 -1.04099111184 -13.3242907133 0 -14.3300540117 0 -14.3349118653 14.3300540117 -90 -1.04099111184 1.00576329839 1.44749523898 135.98727547 -134.01272453 1.40722391652e-96 -1.69620684057e-101 -2.1714591909e-100 2.17807440939e-100 -94.467699107 1.25708224991e-94
0.92598354977 0.11788782946 13.7120405411 -1.05132046013 -13.6716755407 0 -14.6997980651 0 -14.7048401602 14.6997980651 -90 -1.05132046013 1.02812252441 1.4704862681 135.6403557 -134.3596443 1.40723293619e-96 -1.75884432753e-101 -2.28763543288e-100 2.2943873118e-100 -94.3976431364 1.3232389539e-94
0.92598354977 0.12123972958 14.0654862471 -1.06218430357 -14.0253200569 0 -15.0762277853 0 -15.0814601996 15.0762277853 -90 -1.06218430357 1.05090772833 1.4942091143 135.306930071 -134.693069929 1.40723541399e-96 -1.82433272145e-101 -2.40927759796e-100 2.4161751516e-100 -94.3312927969 1.3923331865e-94
0.92598354977 0.12468067527 14.4251404092 -1.07356412964 -14.3851337944 0 -15.4592410669 0 -15.4646699891 15.4592410669 -90 -1.07356412964 1.07410727252 1.51863880915 134.986652701 -135.013347299 1.4072360446e-96 -1.89276988381e-101 -2.53659324536e-100 2.54364560886e-100 -94.2684159696 1.46444391742e-94
0.92598354977 0.1282126651 14.7908924025 -1.08544053457 -14.7510087327 0 -15.8487169551 0 -15.8543486857 15.8487169551 -90 -1.08544053457 1.09770822246 1.54374904606 134.679154231 -135.320845769 1.4072362019e-96 -1.9642494016e-101 -2.66978764613e-100 2.67700406028e-100 -94.208794102 1.53964355075e-94
0.92598354977 0.13183773888 15.1626130737 -1.09779319722 -15.1228181945 0 -16.244514478 0 -16.2503554156 16.244514478 -90 -1.09779319722 1.12169628355 1.56951211289 134.384046812 -135.615953188 1.40723623512e-96 -2.03886283533e-101 -2.80906643745e-100 2.81645624279e-100 -94.1522215707 1.61799898113e-94
0.92598354977 0.13555797851 15.5401535908 -1.11060085243 -15.5004157069 0 -16.6464714444 0 -16.6525280794 16.6464714444 -90 -1.11060085243 1.1460557375 1.59589882211 134.100928726 -135.899071274 1.40723624877e-96 -2.11670027477e-101 -2.95463616187e-100 2.96220879524e-100 -94.0985050631 1.69957138432e-94
0.92598354977 0.1393755088 15.9233442802 -1.12384126475 -15.8836338502 0 -17.0544032298 0 -17.0606821327 17.0544032298 -90 -1.12384126475 1.17076937962 1.62287844043 133.829388595 -136.170611405 1.40723625307e-96 -2.19785017207e-101 -3.10670389955e-100 3.11446889017e-100 -94.0474629783 1.78441547578e-94
0.92598354977 0.14329249833 16.3119934449 -1.13749120246 -16.2722830858 0 -17.4681015428 0 -17.4746093553 17.4681015428 -90 -1.13749120246 1.19581845707 1.65041861801 133.569009203 -136.430990797 1.40723626199e-96 -2.28239903936e-101 -3.2654766664e-100 3.27344363112e-100 -93.998924848 1.8725786186e-94
0.92598354977 0.14731116027 16.7058861787 -1.15152641273 -16.6661505808 0 -17.8873331901 0 -17.894076607 17.8873331901 -90 -1.15152641273 1.22118260929 1.67848531904 133.319370913 -136.680629087 1.40723626816e-96 -2.37043102134e-101 -3.43116063807e-100 3.43933927531e-100 -93.9527307784 1.96409979851e-94
0.92598354977 0.15143375329 17.1047831742 -1.16592159807 -17.0649990238 0 -18.3118388345 0 -18.3188245919 18.3118388345 -90 -1.16592159807 1.2468398107 1.70704275425 133.080054698 -136.919945302 1.40723627797e-96 -2.46202747204e-101 -3.6039603153e-100 3.6123603978e-100 -93.9087309143 2.05900855602e-94
0.92598354977 0.15566258242 17.5084195442 -1.18065039531 -17.468565454 0 -18.7413317714 0 -18.7485666246 18.7413317714 -90 -1.18065039531 1.27276631749 1.73605331735 132.850644797 -137.149355203 1.40723628647e-96 -2.55726646528e-101 -3.78407758013e-100 3.79270894624e-100 -93.8667849252 2.15732384152e-94
0.92972650512 0.11144337341 12.9737650567 -1.015408285 -12.9339677734 0 -13.9101767018 0 -13.7407429449 13.9101767018 -90 -1.015408285 0.976208928369 1.40855888626 136.127343883 -133.872656117 1.40721491562e-96 -1.77937640588e-101 -2.26669350241e-100 2.27366693728e-100 -94.4888481839 1.1843898769e-94
0.92972650512 0.11462301686 13.1453093939 -1.02047681768 -13.1056368071 0 -14.0929024969 0 -14.0982843866 14.0929024969 -90 -1.02047681768 0.987265689823 1.41988936248 135.94884962 -134.05115038 1.40722270871e-96 -1.81265560036e-101 -2.32835718381e-100 2.3354028742e-100 -94.4527704558 1.21612633333e-94
0.92972650512 0.11788782946 13.4870949674 -1.03075285078 -13.4476471233 0 -14.4569535906 0 -14.4625313085 14.4569535906 -90 -1.03075285078 1.00930646728 1.44262587347 135.603461576 -134.396538424 1.40723256202e-96 -1.87986933968e-101 -2.45298871564e-100 2.46018188784e-100 -94.3834779788 1.28019389762e-94
0.92972650512 0.12123972958 13.8351193423 -1.04155583761 -13.7958554015 0 -14.8276242628 0 -14.8334039775 14.8276242628 -90 -1.04155583761 1.0317688613 1.4660842759 135.271588251 -134.728411749 1.40723529275e-96 -1.95014922081e-101 -2.58349106977e-100 2.59084139075e-100 -94.317854988 1.34711411115e-94
0.92972650512 0.12468067527 14.1892939113 -1.05286778934 -14.1501756935 0 -15.2048174413 0 -15.2108054202 15.2048174413 -90 -1.05286778934 1.0546417478 1.49024042285 134.952874667 -135.047125333 1.40723599605e-96 -2.02360155286e-101 -2.72008871365e-100 2.72760598657e-100 -94.2556712494 1.41696499852e-94
0.92972650512 0.1282126651 14.5495131124 -1.06466984595 -14.5105049589 0 -15.5884176972 0 -15.594620307 15.5884176972 -90 -1.06466984595 1.07791273834 1.51506886488 134.646943096 -135.353056904 1.40723617426e-96 -2.10032782471e-101 -2.86300338613e-100 2.87069753306e-100 -94.1967099912 1.48981813902e-94
0.92972650512 0.13183773888 14.9156533323 -1.07694225149 -14.876721982 0 -15.9782900997 0 -15.9847137916 15.9782900997 -90 -1.07694225149 1.10156811774 1.54054278387 134.353398061 -135.646601939 1.40723621498e-96 -2.18042732423e-101 -3.01245721336e-100 3.02033826858e-100 -94.1407672758 1.56573983053e-94
0.92972650512 0.13555797851 15.2875717776 -1.0896643286 -15.2486862547 0 -16.3742790358 0 -16.380930338 16.3742790358 -90 -1.0896643286 1.12559278112 1.56663392431 134.071830971 -135.928169029 1.4072362325e-96 -2.2639978113e-101 -3.16867338942e-100 3.17675149579e-100 -94.0876513902 1.64479094132e-94
0.92972650512 0.1393755088 15.6651053323 -1.10281445304 -15.6262368447 0 -16.7762070164 0 -16.7830925221 16.7762070164 -90 -1.10281445304 1.14997017179 1.59331252359 133.801824327 -136.198175673 1.40723623991e-96 -2.35113537301e-101 -3.33187582943e-100 3.3401612343e-100 -94.0371822532 1.72702621805e-94
0.92972650512 0.14329249833 16.0480693958 -1.1163700282 -16.0091912435 0 -17.1838734634 0 -17.1909998199 17.1838734634 -90 -1.1163700282 1.17468221988 1.62054724165 133.542955524 -136.457044476 1.40723625158e-96 -2.44193410979e-101 -3.50228854087e-100 3.51079159121e-100 -93.9891908413 1.81249343132e-94
0.92972650512 0.14731116027 16.4362567159 -1.1303074603 -16.3973442086 0 -17.5970534914 0 -17.6044273825 17.5970534914 -90 -1.1303074603 1.19970928281 1.64830509165 133.294800239 -136.705199761 1.40723626046e-96 -2.53648568667e-101 -3.68013480861e-100 3.68886594465e-100 -93.9435186347 1.90123239223e-94
0.92972650512 0.15143375329 16.8294362136 -1.14460213453 -16.7904665963 0 -18.0154966841 0 -18.0231248161 18.0154966841 -90 -1.14460213453 1.22503008779 1.67655137182 133.056935429 -136.943064571 1.40723627287e-96 -2.63487888242e-101 -3.86563630878e-100 3.87460605648e-100 -93.9000170834 1.99327392218e-94
0.92972650512 0.15566258242 17.2273518192 -1.15922839307 -17.1883042061 0 -18.4389258839 0 -18.4468149635 18.4389258839 -90 -1.15922839307 1.25062167788 1.70524960086 132.82894194 -137.17105806 1.40723628395e-96 -2.73719906968e-101 -4.05901211073e-100 4.06823107268e-100 -93.858547094 2.0886387498e-94
0.9338054383 0.11144337341 12.7428035478 -0.993453583326 -12.7040185748 0 -13.6607220076 0 -13.494739838 13.6607220076 -90 -0.993453583326 0.956703432824 1.37921422641 136.079306341 -133.920693659 1.40721277581e-96 -1.89622649244e-101 -2.42505898504e-100 2.43246130197e-100 -94.4713403822 1.14260863006e-94
0.9338054383 0.11462301686 12.9114689313 -0.998500684864 -12.8727992099 0 -13.8403891166 0 -13.8462942015 13.8403891166 -90 -0.998500684864 0.967589906701 1.3904144331 135.901838471 -134.098161529 1.40722132186e-96 -1.93186554473e-101 -2.491064359e-100 2.49854461328e-100 -94.4357327928 1.17325834129e-94
0.9338054383 0.11788782946 13.2475361518 -1.00872986067 -13.2090732108 0 -14.198365181 0 -14.204477671 14.198365181 -90 -1.00872986067 0.989291970146 1.41288786556 135.558481337 -134.441518663 1.40723213981e-96 -2.00384868383e-101 -2.62447464026e-100 2.63211392582e-100 -94.3673446783 1.23513579568e-94
0.9338054383 0.12123972958 13.5897740214 -1.01947727059 -13.5514783142 0 -14.5628891143 0 -14.5692152723 14.5628891143 -90 -1.01947727059 1.01141080017 1.43607188655 135.22864319 -134.77135681 1.40723516485e-96 -2.07912258611e-101 -2.76417732655e-100 2.77198597999e-100 -94.3025806584 1.29977649235e-94
0.9338054383 0.12468067527 13.9380987601 -1.0307254758 -13.8999333012 0 -14.9338691109 0 -14.9404152871 14.9338691109 -90 -1.0307254758 1.03393580976 1.45994322188 134.911958706 -135.088041294 1.40723595173e-96 -2.15780253423e-101 -2.91041481222e-100 2.91840332363e-100 -94.2412128925 1.36725741461e-94
0.9338054383 0.1282126651 14.292410113 -1.0424561923 -14.254340347 0 -15.3111955298 0 -15.3179681612 15.3111955298 -90 -1.0424561923 1.05685518283 1.48447733616 134.608040846 -135.391959154 1.40723615206e-96 -2.23999837062e-101 -3.06342623031e-100 3.07160522341e-100 -94.18302689 1.43764921903e-94
0.9338054383 0.13183773888 14.6525902784 -1.05465026729 -14.6145839604 0 -15.6947397731 0 -15.7017453681 15.6947397731 -90 -1.05465026729 1.08015581266 1.50964836754 134.316485864 -135.683514136 1.4072361994e-96 -2.3258175496e-101 -3.22345111023e-100 3.23183133498e-100 -94.1278208903 1.51101751218e-94
0.9338054383 0.13555797851 15.0185028008 -1.0672876544 -14.980529889 0 -16.0843531286 0 -16.0915982588 16.0843531286 -90 -1.0672876544 1.10382323959 1.5354290596 134.036877916 -135.963122084 1.40723621935e-96 -2.41536594965e-101 -3.39073023003e-100 3.39932255875e-100 -94.0754052585 1.58742276717e-94
0.9338054383 0.1393755088 15.3899914517 -1.08034738855 -15.3520240097 0 -16.4798655991 0 -16.4873568858 16.4798655991 -90 -1.08034738855 1.12784158942 1.56179069196 133.768793233 -136.231206767 1.40723622884e-96 -2.50874776133e-101 -3.56550530434e-100 3.57432072751e-100 -94.0256018968 1.66691968444e-94
0.9338054383 0.14329249833 15.7668790882 -1.09380756042 -15.7288911974 0 -16.8810847096 0 -16.8888288129 16.8810847096 -90 -1.09380756042 1.15219351221 1.58870300991 133.511803874 -136.488196126 1.40723624237e-96 -2.60606516282e-101 -3.74801833147e-100 3.75706795275e-100 -93.9782436738 1.74955637679e-94
0.9338054383 0.14731116027 16.1489665067 -1.10764529119 -16.1109341871 0 -17.2877943101 0 -17.2957979094 17.2877943101 -90 -1.10764529119 1.17686012294 1.61613415457 133.265481057 -136.734518943 1.40723625345e-96 -2.70741785163e-101 -3.93851074205e-100 3.94780577174e-100 -93.9331738715 1.83537342949e-94
0.9338054383 0.15143375329 16.5360312856 -1.1218367078 -16.4979324255 0 -17.6997533691 0 -17.7080231489 17.6997533691 -90 -1.1218367078 1.2018209436 1.64405059392 133.029398088 -136.970601912 1.4072362681e-96 -2.81290256484e-101 -4.13722246166e-100 4.14677420888e-100 -93.8902456531 1.9244029099e-94
0.9338054383 0.15566258242 16.9278266395 -1.13635691974 -16.8896409311 0 -18.1166947797 0 -18.1252374065 18.1166947797 -90 -1.13635691974 1.22705384864 1.67241705678 132.803132905 -137.196867095 1.40723628155e-96 -2.92261252833e-101 -4.34439085832e-100 4.35421072155e-100 -93.8493215503 2.01666730787e-94
0.93824688834 0.11144337341 12.4975243271 -0.969976048909 -12.4598256549 0 -13.3958392324 0 -13.2334920938 13.3958392324 -90 -0.969976048909 0.936013577462 1.34795234656 136.02044996 -133.97955004 1.4072102428e-96 -2.01499936892e-101 -2.58862933139e-100 2.59645995016e-100 -94.4512926948 1.09905930376e-94