TITLE = "Electromagnetic Field"
VARIABLES = X Y E ER EI EvR EvI EvR' EvI' Ev EvPhase EpR EpI Ep EpPhase EpToEvPhaseShift elConductivity Jr Ji J Jphase QJ
ZONE N=266, E=231, F=FEPOINT, ET=QUADRILATERAL
0.15092371191 0.08 1057.48715065 -94.209784988 -1053.28229369 0 -1170.11240493 0 -1192.40283617 1170.11240493 -90 -94.209784988 116.830111235 150.082505572 128.882105222 -141.117894778 1.41284786883e-96 -1.20931091509e-101 -1.35203129335e-100 1.35742880001e-100 -95.1111626924 7.89979103086e-91
0.14183825947 0.08 1038.25391248 -92.6768693987 -1034.10935136 0 -1147.65140694 0 -1148.32313823 1147.65140694 -90 -92.6768693987 113.54205558 146.566012162 129.230854867 -140.769145133 1.41287297757e-96 -1.18965464828e-101 -1.32744336416e-100 1.33276356608e-100 -95.1213545836 7.61779001991e-91
0.13275280702 0.08 993.507632539 -89.5400830067 -989.464249706 0 -1096.47635059 0 -1099.06429094 1096.47635059 -90 -89.5400830067 107.012100879 139.534009124 129.928988752 -140.071011248 1.41292330196e-96 -1.14942992907e-101 -1.27017937132e-100 1.27536988012e-100 -95.1718464868 6.97777419205e-91
0.12366735457 0.08 930.923794234 -86.2822349962 -926.914925297 0 -1027.53229815 0 -1030.55711834 1027.53229815 -90 -86.2822349962 100.617372849 132.548538804 130.623043116 -139.376956884 1.41297371725e-96 -1.10764828887e-101 -1.1899266976e-100 1.19507308546e-100 -95.322468174 6.13225028775e-91
0.11458190213 0.08 847.807633702 -82.9481252956 -843.735332391 0 -938.174846783 0 -939.600938723 938.174846783 -90 -82.9481252956 94.4395143919 125.697065967 131.302494607 -138.697505393 1.41259248217e-96 -1.06456591313e-101 -1.08287047812e-100 1.08809686558e-100 -95.6251894488 5.09183385102e-91
0.10549644968 0.08 753.707330286 -79.5875608081 -749.485732387 0 -838.036220594 0 -837.762665254 838.036220594 -90 -79.5875608081 88.5504882073 119.062214446 131.957371169 -138.042628831 1.41229383025e-96 -1.02121248675e-101 -9.61685044362e-101 9.67101924311e-101 -96.0781085111 4.02771010173e-91
0.096410997233 0.08 660.614052367 -76.2520215861 -656.188821154 0 -739.198595516 0 -738.074946209 739.198595516 -90 -76.2520215861 83.009774362 112.717984481 132.578555075 -137.421444925 1.4125267099e-96 -9.78574187064e-102 -8.4211113402e-101 8.47790242489e-101 -96.6494862449 3.09649944126e-91
0.087325544786 0.08 575.550614877 -72.9890320127 -570.893008853 0 -648.753908516 0 -647.397715955 648.753908516 -90 -72.9890320127 77.8608996633 106.723880607 133.15777767 -136.84222233 1.41279724481e-96 -9.36877950885e-102 -7.32787377189e-101 7.3876585071e-101 -97.3100989748 2.35128861584e-91
0.078240092339 0.08 500.784765145 -69.8342373909 -495.880444148 0 -569.007158984 0 -567.695785257 569.007158984 -90 -69.8342373909 73.1267148354 101.116437743 133.687402518 -136.312597482 1.41311344895e-96 -8.96583664074e-102 -6.36644337524e-101 6.42940904433e-101 -98.0427400277 1.7804388369e-91
0.069154639893 0.08 436.176236392 -66.801637947 -431.019064471 0 -499.821874847 0 -498.650089389 499.821874847 -90 -66.801637947 68.8028103762 95.8979812885 134.160328782 -135.839671218 1.41331540343e-96 -8.57773351889e-102 -5.53453916252e-101 5.60076043132e-101 -98.8381624053 1.35071414088e-91
0.060069187446 0.08 380.718020701 -63.8710597629 -375.310953731 0 -440.159300027 0 -439.14551953 440.159300027 -90 -63.8710597629 64.8483462966 91.0214784548 134.569879238 -135.430120762 1.41337003264e-96 -8.20174755179e-102 -4.81940234682e-101 4.88883509428e-101 -99.6875262901 1.02893874479e-91
0.050983734999 0.08 334.580113792 -61.0659819526 -328.95050145 0 -390.237672233 0 -387.90592523 390.237672233 -90 -61.0659819526 61.2871707832 86.5171692751 134.900181706 -135.099818294 1.41339607174e-96 -7.60546959557e-102 -4.10255544196e-101 4.17257421617e-101 -100.544142981 7.94291882541e-92
0.042478112499 0.08 297.806671711 -58.4162171705 -292.014820831 0 -350.149227315 0 -346.358188643 350.149227315 -90 -58.4162171705 58.1344064841 82.4140954913 135.140884018 -134.859115982 1.41336852305e-96 -6.50363739427e-102 -3.26080783389e-101 3.3250995121e-101 -101.332756814 6.28615335261e-92
0.035390093749 0.08 269.128292309 -55.8836756613 -263.259062483 0 -318.570470237 0 -315.829192372 318.570470237 -90 -55.8836756613 55.3114077539 78.6278725708 135.29606405 -134.70393595 1.41326819795e-96 -5.18393929471e-102 -2.44729556424e-101 2.50162578137e-101 -101.997070514 5.12822844038e-92
0.029483411458 0.08 247.9148387 -53.547650638 -242.061402535 0 -294.91762933 0 -292.886302949 294.91762933 -90 -53.547650638 52.8562267952 75.2404963725 135.372735681 -134.627264319 1.41310473978e-96 -4.1386699703e-102 -1.87354253203e-101 1.91872035163e-101 -102.480768436 4.34824530049e-92
0.024561176215 0.08 238.137532556 -52.3231170411 -232.318264101 0 -283.925292933 0 -275.324938918 283.925292933 -90 -52.3231170411 51.6070288325 73.491455298 135.394766913 -134.605233087 1.41300065797e-96 -3.6391364345e-102 -1.61580178533e-101 1.65627550527e-101 -102.69247394 4.00652693934e-92
0.024561176215 0.07986226678 237.820732357 -52.4143564483 -231.972920784 0 -283.655328734 0 -275.001743361 283.655328734 -90 -52.4143564483 51.6824079505 73.6093475956 135.402864286 -134.597135714 1.41291711297e-96 -1.51318254221e-101 -6.69697002464e-101 6.86579412136e-101 -102.732198764 3.99563780807e-92
0.024561176215 0.079903777667 237.865183214 -52.4015462213 -232.021383992 0 -283.693208935 0 -275.099228769 283.693208935 -90 -52.4015462213 51.6718249433 73.5927954502 135.401728403 -134.598271597 1.41292710534e-96 -1.35423544306e-101 -5.99580641251e-101 6.14684053958e-101 -102.726617562 3.99716005654e-92
0.024561176215 0.079935181834 237.957428893 -52.3749673528 -232.121951475 0 -283.771818368 0 -275.172934122 283.771818368 -90 -52.3749673528 51.6498668928 73.558452654 135.399371011 -134.600628989 1.41294893283e-96 -1.02290867586e-101 -4.53321200548e-101 4.64718768622e-101 -102.715039984 4.00032262077e-92
0.024561176215 0.079958854196 238.027021799 -52.3549254239 -232.197813646 0 -283.83112248 0 -275.228467281 283.83112248 -90 -52.3549254239 51.6333088343 73.532556043 135.397592192 -134.602407808 1.41296748014e-96 -7.70157374801e-102 -3.41556369525e-101 3.50131657877e-101 -102.706314373 4.00271532e-92
0.024561176215 0.079976649736 238.07937136 -52.3398550094 -232.254874042 0 -283.875731866 0 -275.270199411 283.875731866 -90 -52.3398550094 51.6208578239 73.51308309 135.39625393 -134.60374607 1.41298263271e-96 -5.78450243265e-102 -2.56675831161e-101 2.63113149214e-101 -102.699755762 4.0045190728e-92
0.024561176215 0.07999 238.118663266 -52.3285468121 -232.297698895 0 -283.909213857 0 -275.301498773 283.909213857 -90 -52.3285468121 51.6115149623 73.4984713341 135.395249366 -134.604750634 1.41299468928e-96 -4.3366885289e-102 -1.92510494225e-101 1.97334683148e-101 -102.694835904 4.00587513407e-92
0.029483411458 0.079524954772 254.827367869 -54.9129062501 -248.840431085 0 -303.02220085 0 -291.705289556 303.02220085 -90 -54.9129062501 54.1817697651 77.1433175829 135.383982145 -134.616017855 1.41304482784e-96 -5.44263245311e-101 -2.46635463019e-100 2.52569349725e-100 -102.444312198 4.58794371012e-92
0.029483411458 0.079643705157 254.966931517 -54.8738617445 -248.991945745 0 -303.141499572 0 -292.00142842 303.141499572 -90 -54.8738617445 54.149553827 77.0928979111 135.380641814 -134.619358186 1.4130461259e-96 -4.91388589381e-101 -2.22928812822e-100 2.28280283771e-100 -102.428418419 4.59297651959e-92
0.029483411458 0.079736268909 255.253447244 -54.7937467008 -249.302955901 0 -303.386404102 0 -292.231841629 303.386404102 -90 -54.7937467008 54.0834482005 76.9894412389 135.373782094 -134.626217906 1.41305556643e-96 -3.8118966302e-101 -1.73410052998e-100 1.77550285374e-100 -102.395827465 4.60333497796e-92
0.029483411458 0.079807658136 255.474900137 -54.7319011077 -249.543265493 0 -303.575678946 0 -292.409293915 303.575678946 -90 -54.7319011077 54.032413453 76.9095749016 135.368475914 -134.631524086 1.41307594702e-96 -2.9291731646e-101 -1.33536631312e-100 1.36711513982e-100 -102.370708598 4.61139204224e-92
0.029483411458 0.07986226678 250.927579169 -54.0837557769 -245.02872088 0 -298.410482678 0 -292.544886167 298.410482678 -90 -54.0837557769 53.3817617982 75.9912207521 135.374584862 -134.625415138 1.4130515089e-96 -2.04357992095e-101 -9.27528315482e-101 9.49777397826e-101 -102.452252202 4.45299871712e-92
0.029483411458 0.079903777667 247.633501918 -53.6271797396 -241.75561687 0 -294.677511652 0 -292.647870766 294.677511652 -90 -53.6271797396 52.9218947817 75.343228325 135.379681435 -134.620318565 1.41303402637e-96 -1.54010742113e-101 -6.9523416642e-101 7.12092307684e-101 -102.514048083 4.33816813096e-92
0.029483411458 0.079935181834 247.728792348 -53.600229331 -241.859200982 0 -294.758843212 0 -292.725732077 294.758843212 -90 -53.600229331 52.8996422299 75.3084154027 135.377329481 -134.622670519 1.41305517779e-96 -1.16331063971e-101 -5.256382182e-101 5.38360142676e-101 -102.502763798 4.34157140208e-92
0.029483411458 0.079958854196 247.800681848 -53.5799064148 -241.937338796 0 -294.820200237 0 -292.784395514 294.820200237 -90 -53.5799064148 52.8828614417 75.2821632413 135.37555469 -134.62444531 1.41307302411e-96 -8.75870205315e-102 -3.96042017516e-101 4.05613821898e-101 -102.494259005 4.34414561576e-92
0.029483411458 0.079976649736 247.854758706 -53.5646242466 -241.996110877 0 -294.866353454 0 -292.828479412 294.866353454 -90 -53.5646242466 52.8702425778 75.2624223405 135.374219417 -134.625780583 1.41308753713e-96 -6.57850668821e-102 -2.97620119684e-101 3.04805559581e-101 -102.487866244 4.34608585381e-92
0.029483411458 0.07999 247.895346918 -53.5531568954 -242.040220403 0 -294.900993958 0 -292.861542288 294.900993958 -90 -53.5531568954 52.8607735558 75.2476091937 135.373217073 -134.626782927 1.41309904942e-96 -4.93196854775e-102 -2.23218672651e-101 2.2860354188e-101 -102.483070725 4.34754432409e-92
0.035390093749 0.076915933327 270.466477487 -59.5277692655 -263.834342212 0 -322.425034711 0 -307.424315396 322.425034711 -90 -59.5277692655 58.5906924985 83.5249936317 135.454538746 -134.545461254 1.41341334584e-96 -2.21303492047e-100 -9.80844099716e-100 1.0055000664e-99 -102.714493398 5.16970881225e-92
0.035390093749 0.077287019364 271.103178531 -59.3551681086 -264.525607522 0 -322.974130043 0 -308.459504055 322.974130043 -90 -59.3551681086 58.4485225215 83.3022577799 135.440917659 -134.559082341 1.41342209252e-96 -2.22716725353e-100 -9.92621772591e-100 1.01730139899e-99 -102.646911306 5.19413774787e-92
0.035390093749 0.077664969066 272.345972631 -59.0191107943 -265.873985803 0 -324.045659857 0 -309.507176753 324.045659857 -90 -59.0191107943 58.1716740542 82.8685674934 135.414278046 -134.585721954 1.41343857056e-96 -2.20825974059e-100 -9.94728950477e-100 1.01894609945e-99 -102.515815121 5.24192928242e-92
0.035390093749 0.078033822604 273.553614842 -58.6941401691 -267.182506586 0 -325.086386497 0 -310.523126621 325.086386497 -90 -58.6941401691 57.9038799113 82.449146379 135.388292669 -134.611707331 1.41345246246e-96 -2.10214202912e-100 -9.56757776065e-100 9.79579785453e-100 -102.389957805 5.28856910237e-92
0.035390093749 0.078379102643 274.682106279 -58.3918467984 -268.403764607 0 -326.058464825 0 -311.468299338 326.058464825 -90 -58.3918467984 57.6547002183 82.0589575376 135.363920486 -134.636079514 1.41345308018e-96 -1.92467120637e-100 -8.84477835049e-100 9.05176997487e-100 -102.273689222 5.33229077852e-92
0.035390093749 0.078689931403 275.698455747 -58.1207079056 -269.502444537 0 -326.933583403 0 -312.314311732 326.933583403 -90 -58.1207079056 57.4311388656 81.7089506547 135.341894356 -134.658105644 1.41342293387e-96 -1.69993954528e-100 -7.88027682506e-100 8.06155090378e-100 -102.170064978 5.3717040657e-92
0.035390093749 0.078960057578 276.583509413 -57.8854377367 -270.458268237 0 -327.695371069 0 -313.045794071 327.695371069 -90 -57.8854377367 57.2371028328 81.4052209677 135.322653735 -134.677346265 1.41335856413e-96 -1.45403896624e-100 -6.79171091432e-100 6.94561663775e-100 -102.080657286 5.4059973293e-92
0.035390093749 0.079187714856 277.33162091 -57.6871692667 -271.265537747 0 -328.339084459 0 -313.659561495 328.339084459 -90 -57.6871692667 57.0735467121 81.1492411596 135.306345688 -134.693654312 1.41328087715e-96 -1.20969342538e-100 -5.68681959793e-100 5.81405939395e-100 -102.005678781 5.4349791175e-92
0.035390093749 0.079374668832 277.948013132 -57.5242143956 -271.930221773 0 -328.86931752 0 -314.16173298 328.86931752 -90 -57.5242143956 56.9390957468 80.9388407218 135.292877708 -134.707122292 1.41321942947e-96 -9.83234612063e-101 -4.6468178642e-100 4.74970224626e-100 -101.944307349 5.45892536702e-92
0.035390093749 0.079524954772 272.094004641 -56.7261102192 -266.112769548 0 -322.231255248 0 -314.564193686 322.231255248 -90 -56.7261102192 56.1184856996 79.7943602716 135.309420605 -134.690579395 1.41315015159e-96 -7.19565507345e-101 -3.38387606343e-100 3.45956138948e-100 -102.042773142 5.238907707e-92
0.035390093749 0.079643705157 267.988113831 -56.1913584838 -262.027471663 0 -317.592836605 0 -314.88143443 317.592836605 -90 -56.1913584838 55.5653649422 79.0252110415 135.322122624 -134.677877376 1.41312238814e-96 -5.59184335659e-101 -2.61269708705e-100 2.67189876686e-100 -102.116314119 5.0843621881e-92
0.035390093749 0.079736268909 268.286282445 -56.1107586577 -262.349691599 0 -317.848538917 0 -315.128246554 317.848538917 -90 -56.1107586577 55.4988473187 78.9211295311 135.315317807 -134.684682193 1.41313447062e-96 -4.33794624335e-101 -2.03230512172e-100 2.07811058957e-100 -102.084995784 5.09572162249e-92
0.035390093749 0.079807658136 268.516736333 -56.0485303967 -262.598663575 0 -318.046150961 0 -315.318316665 318.046150961 -90 -56.0485303967 55.4474873866 78.8407698303 135.310053676 -134.689946324 1.4131558261e-96 -3.33347980261e-101 -1.56497837631e-100 1.60010564459e-100 -102.060855574 5.10455325199e-92
0.035390093749 0.07986226678 268.693325221 -56.0008863738 -262.789400439 0 -318.197562559 0 -315.463543322 318.197562559 -90 -56.0008863738 55.4081621205 78.7792425474 135.30601715 -134.69398285 1.41317975615e-96 -2.5429240065e-101 -1.19574488214e-100 1.22249957511e-100 -102.042396369 5.11135310649e-92
0.035390093749 0.079903777667 268.827743204 -55.9646429028 -262.93456351 0 -318.312808953 0 -315.573841374 318.312808953 -90 -55.9646429028 55.3782454437 78.7324371695 135.302942939 -134.697057061 1.41320253232e-96 -1.92901285568e-101 -9.08174629219e-101 9.28446031269e-101 -102.028367771 5.11654862726e-92
0.035390093749 0.079935181834 268.929542507 -55.937207527 -263.044486525 0 -318.400085006 0 -315.657229685 318.400085006 -90 -55.937207527 55.3555984808 78.6970062873 135.300613785 -134.699386215 1.41322246992e-96 -1.45708546985e-101 -6.86625886096e-101 7.01924118353e-101 -102.017756293 5.12049486615e-92
0.035390093749 0.079958854196 269.006341415 -55.9165172821 -263.127406165 0 -318.465925096 0 -315.720056033 318.465925096 -90 -55.9165172821 55.3385189305 78.6702860359 135.298856091 -134.701143909 1.4132390689e-96 -1.09706637399e-101 -5.17333510454e-101 5.28843977511e-101 -102.009758156 5.12347862405e-92
0.035390093749 0.079976649736 269.06411064 -55.900957977 -263.189775009 0 -318.515449657 0 -315.767267489 318.515449657 -90 -55.900957977 55.3256746474 78.6501919609 135.29753362 -134.70246638 1.41325244887e-96 -8.23992541211e-102 -3.88766330361e-101 3.97407259946e-101 -102.003745989 5.12572686701e-92
0.035390093749 0.07999 269.107469876 -55.8892821522 -263.236584009 0 -318.552620057 0 -315.802675606 318.552620057 -90 -55.8892821522 55.3160360484 78.635113133 135.296540852 -134.703459148 1.41326299908e-96 -6.17757929331e-102 -2.9157789844e-101 2.98053620634e-101 -101.999235835 5.12741647549e-92
0.042478112499 0.076915933327 287.753262221 -60.9654468303 -281.213044632 0 -341.450946852 0 -337.177051683 341.450946852 -90 -60.9654468303 60.2379022198 85.7053810668 135.346220359 -134.653779641 1.41343729555e-96 -2.51864131035e-100 -1.16539717461e-99 1.19233331023e-99 -102.255118009 5.86937661284e-92
0.042478112499 0.077287019364 288.423834989 -60.7930803025 -281.936304486 0 -342.032150855 0 -338.309031952 342.032150855 -90 -60.7930803025 60.0958463693 85.4829303083 135.332718731 -134.667281269 1.41345325247e-96 -2.53493963625e-100 -1.17933627248e-99 1.20630349679e-99 -102.191167085 5.89685222758e-92
0.042478112499 0.077664969066 289.732661652 -60.4573806728 -283.34711496 0 -343.166246385 0 -339.454350677 343.166246385 -90 -60.4573806728 59.8191314247 85.0496622798 135.306311425 -134.693688575 1.41347641443e-96 -2.51380980516e-100 -1.18172918265e-99 1.20820076847e-99 -102.067089926 5.95056534374e-92
0.042478112499 0.078033822604 291.004310333 -60.1325695847 -284.716262076 0 -344.26756194 0 -340.564677844 344.26756194 -90 -60.1325695847 59.5512998643 84.6303999511 135.280549992 -134.719450008 1.41348720983e-96 -2.39334717616e-100 -1.13650906559e-99 1.16146423157e-99 -101.947924928 6.002930407e-92
0.042478112499 0.078379102643 292.192467014 -59.8302597416 -285.994129067 0 -345.296067357 0 -341.597366837 345.296067357 -90 -59.8302597416 59.3019382901 84.240138225 135.256385214 -134.743614786 1.41348063276e-96 -2.19156989146e-100 -1.05055119654e-99 1.07319222635e-99 -101.837798407 6.05198961924e-92
0.042478112499 0.078689931403 293.262427255 -59.558970617 -287.143749477 0 -346.221842663 0 -342.521471967 346.221842663 -90 -59.558970617 59.078093186 83.8898848986 135.234544137 -134.765455863 1.41344225481e-96 -1.93588993921e-100 -9.35911415693e-100 9.55744968096e-100 -101.739615475 6.09619709614e-92
0.042478112499 0.078960057578 294.194065763 -59.3234661405 -288.143894613 0 -347.027613148 0 -343.320285152 347.027613148 -90 -59.3234661405 58.8837185354 83.5858025323 135.215463179 -134.784536821 1.41337398315e-96 -1.65602145614e-100 -8.06568843819e-100 8.2341207516e-100 -101.654877686 6.13466931476e-92
0.042478112499 0.079187714856 294.981478857 -59.1249251494 -288.988596505 0 -347.708406935 0 -343.99040851 347.708406935 -90 -59.1249251494 58.7198104294 83.3294253308 135.199288925 -134.800711075 1.41329930371e-96 -1.3778538552e-100 -6.75317079318e-100 6.89244944217e-100 -101.583797615 6.1672074079e-92
0.042478112499 0.079374668832 295.630199482 -58.9616948701 -289.684098546 0 -348.269123136 0 -344.53859234 348.269123136 -90 -58.9616948701 58.5850245902 83.118629692 135.185930329 -134.814069671 1.41324485565e-96 -1.1199989825e-100 -5.51792591477e-100 5.63056448651e-100 -101.52560503 6.19411094858e-92
0.042478112499 0.079524954772 296.153351841 -58.8302795465 -290.244705539 0 -348.721195895 0 -344.977865105 348.721195895 -90 -58.8302795465 58.4764903565 82.9489096265 135.175135154 -134.824864846 1.41322100372e-96 -8.93159005475e-101 -4.41884041062e-100 4.50829663441e-100 -101.478916296 6.21593775641e-92
0.042478112499 0.079643705157 296.56793294 -58.7262741605 -290.688797273 0 -349.079378559 0 -345.324082249 349.079378559 -90 -58.7262741605 58.3905812861 82.814582315 135.16656594 -134.83343406 1.41322247667e-96 -7.01396191915e-101 -3.48168032828e-100 3.55170092172e-100 -101.442068113 6.23335146989e-92
0.042478112499 0.079736268909 296.891904674 -58.6450829315 -291.035725342 0 -349.359234526 0 -345.593412732 349.359234526 -90 -58.6450829315 58.3235091838 82.7097163486 135.159860599 -134.840139401 1.41323899556e-96 -5.44147999553e-101 -2.70815904104e-100 2.762342724e-100 -101.413365833 6.24704382177e-92
0.042478112499 0.079807658136 297.142288004 -58.5823832271 -291.303788061 0 -349.575496364 0 -345.800809086 349.575496364 -90 -58.5823832271 58.2717083037 82.6287314146 135.154672878 -134.845327122 1.41326190732e-96 -4.18166239838e-101 -2.08536342881e-100 2.12692010668e-100 -101.39123847 6.25768103472e-92
0.042478112499 0.07986226678 297.334139945 -58.5343695192 -291.509149771 0 -349.74118764 0 -345.959265236 349.74118764 -90 -58.5343695192 58.2320378696 82.5667139111 135.150694623 -134.849305377 1.41328573838e-96 -3.19005434143e-101 -1.5933180209e-100 1.62497216796e-100 -101.374316304 6.26586546176e-92
0.042478112499 0.079903777667 297.480171231 -58.4978397563 -291.665442925 0 -349.867297154 0 -346.079605736 349.867297154 -90 -58.4978397563 58.2018542294 82.5195289297 135.147664605 -134.852335395 1.41330762237e-96 -2.41996935591e-101 -1.21011274876e-100 1.23409777341e-100 -101.361454596 6.27211533421e-92
0.042478112499 0.079935181834 297.5907629 -58.4701847552 -291.783793825 0 -349.962796487 0 -346.170583413 349.962796487 -90 -58.4701847552 58.1790026615 82.4838068582 135.145368825 -134.854631175 1.41332638596e-96 -1.8279622009e-101 -9.14894112753e-101 9.32995711967e-101 -101.351725069 6.27686023975e-92
0.042478112499 0.079958854196 297.674193305 -58.4493272235 -291.873070833 0 -350.034838206 0 -346.239126025 350.034838206 -90 -58.4493272235 58.1617673735 82.4568648208 135.143636256 -134.856363744 1.41334180458e-96 -1.376323737e-101 -6.89313517882e-101 7.02933705996e-101 -101.344391282 6.28044659346e-92
0.042478112499 0.079976649736 297.736949927 -58.4336411783 -291.940221345 0 -350.089026506 0 -346.290632052 350.089026506 -90 -58.4336411783 58.148805161 82.4366027219 135.142332654 -134.857667346 1.41335412431e-96 -1.03374891149e-101 -5.18001966565e-101 5.28226922487e-101 -101.338878277 6.28314814195e-92
0.042478112499 0.07999 297.78405199 -58.4218697177 -291.990619026 0 -350.129696634 0 -346.329260507 350.129696634 -90 -58.4218697177 58.1390776084 82.4213971097 135.141354031 -134.858645969 1.41336377986e-96 -7.7502042604e-102 -3.88503348106e-101 3.9616632071e-101 -101.334742453 6.28517799232e-92
0.050983734999 0.076915933327 323.445155863 -63.6246599037 -317.114130455 0 -380.519904361 0 -377.609586055 380.519904361 -90 -63.6246599037 63.4057739058 89.8245157905 135.102410322 -134.897589678 1.41341874591e-96 -2.94050368115e-100 -1.46766487464e-99 1.49688375954e-99 -101.375596449 7.42331804216e-92
0.050983734999 0.077287019364 324.188483278 -63.4521425343 -317.906686368 0 -381.169847334 0 -378.880465637 381.169847334 -90 -63.4521425343 63.2631609658 89.6016525486 135.089107497 -134.910892503 1.41345726799e-96 -2.95991472743e-100 -1.48513925152e-99 1.51440036194e-99 -101.318059617 7.45771812053e-92
0.050983734999 0.077664969066 325.639145821 -63.1160046043 -319.452684147 0 -382.437907278 0 -380.165958156 382.437907278 -90 -63.1160046043 62.9852231313 89.1673814566 135.063091098 -134.936908902 1.41350273536e-96 -2.93592212941e-100 -1.48797748048e-99 1.51671637602e-99 -101.206393489 7.52483692201e-92
0.050983734999 0.078033822604 327.048280722 -62.7904973669 -320.953047266 0 -383.668996187 0 -381.411811366 383.668996187 -90 -62.7904973669 62.7159489205 88.7467727649 135.037714711 -134.962285289 1.41350829366e-96 -2.79580089298e-100 -1.43084935147e-99 1.45795557837e-99 -101.099085479 7.59010167214e-92
0.050983734999 0.078379102643 328.364599944 -62.4872981445 -322.353382434 0 -384.818397155 0 -382.570211712 384.818397155 -90 -62.4872981445 62.4650147214 88.3549246218 135.013914036 -134.986085964 1.41348848747e-96 -2.5605609639e-100 -1.32245989551e-99 1.34706383492e-99 -100.999861787 7.65118118437e-92
0.050983734999 0.078689931403 329.549718077 -62.215011975 -323.613165135 0 -385.852734323 0 -383.606521414 385.852734323 -90 -62.215011975 62.2395691879 88.0029732222 134.992404183 -135.007595817 1.41343701225e-96 -2.2621989775e-100 -1.17801213663e-99 1.19957404769e-99 -100.911354698 7.70619653533e-92
0.050983734999 0.078960057578 330.581422561 -61.9784889382 -324.709126257 0 -386.752786106 0 -384.502097863 386.752786106 -90 -61.9784889382 62.043659849 87.6972057601 134.973614051 -135.026385949 1.413364558e-96 -1.93543664565e-100 -1.01511428852e-99 1.03343188656e-99 -100.834933923 7.75409982866e-92
0.050983734999 0.079187714856 331.453256745 -61.7789785161 -325.634728187 0 -387.51308103 0 -385.253226855 387.51308103 -90 -61.7789785161 61.8783528434 87.4392553271 134.957687264 -135.042312736 1.41329704179e-96 -1.6105423517e-100 -8.49863929539e-100 8.65015665604e-100 -100.770806169 7.79466299399e-92
0.050983734999 0.079374668832 332.17141956 -61.6148752224 -326.396819594 0 -388.139164434 0 -385.867558159 388.139164434 -90 -61.6148752224 61.7423448398 87.2270615599 134.944533637 -135.055466363 1.41325515028e-96 -1.30928623249e-100 -6.94373882291e-100 7.06630698657e-100 -100.718288942 7.82823263361e-92
0.050983734999 0.079524954772 332.750498849 -61.4827071634 -327.011084064 0 -388.643863453 0 -386.359758098 388.643863453 -90 -61.4827071634 61.6327793891 87.0561471806 134.933904448 -135.066095552 1.41324243376e-96 -1.04420238097e-100 -5.56040874553e-100 5.65777133708e-100 -100.67614293 7.85547019748e-92
0.050983734999 0.079643705157 333.209352347 -61.3780744865 -327.497669267 0 -389.043693569 0 -386.747640257 389.043693569 -90 -61.3780744865 61.5460243022 86.920831211 134.925467196 -135.074532804 1.413250996e-96 -8.20067452749e-101 -4.38098388748e-100 4.45720562648e-100 -100.642873282 7.87718966206e-92
0.050983734999 0.079736268909 333.567890473 -61.2963741824 -327.877785508 0 -389.356058921 0 -387.049351969 389.356058921 -90 -61.2963741824 61.4782734126 86.8151667716 134.91886523 -135.08113477 1.41327096118e-96 -6.36247659603e-101 -3.40756449295e-100 3.4665542707e-100 -100.616954335 7.89425533702e-92
0.050983734999 0.079807658136 333.844970347 -61.2332697145 -328.171486712 0 -389.597424046 0 -387.281664617 389.597424046 -90 -61.2332697145 61.4259373339 86.7335492107 134.913757553 -135.086242447 1.41329491286e-96 -4.88962304576e-101 -2.62386360918e-100 2.66911075252e-100 -100.596970268 7.90750385002e-92
0.050983734999 0.07986226678 334.057267151 -61.1849391965 -328.396486736 0 -389.782337312 0 -387.459146407 389.782337312 -90 -61.1849391965 61.385850576 86.671037828 134.909840719 -135.090159281 1.41331845398e-96 -3.73024507765e-101 -2.00471971141e-100 2.03918745591e-100 -100.581685772 7.917691244e-92
0.050983734999 0.079903777667 334.218853985 -61.148164417 -328.567723935 0 -389.923070358 0 -387.593929607 389.923070358 -90 -61.148164417 61.3553464227 86.6234716155 134.9068575 -135.0931425 1.41333943976e-96 -2.82981949779e-101 -1.52254625808e-100 1.54866465291e-100 -100.570067942 7.92546678742e-92
0.050983734999 0.079935181834 334.341222399 -61.1203216369 -328.697389863 0 -390.029639908 0 -387.695822288 390.029639908 -90 -61.1203216369 61.3322500451 86.5874577831 134.904597192 -135.095402808 1.41335711465e-96 -2.13758408239e-101 -1.15109302081e-100 1.17080550461e-100 -100.561278896 7.93136766512e-92
0.050983734999 0.079958854196 334.433535062 -61.0993211771 -328.795201596 0 -390.110030483 0 -387.77258615 390.110030483 -90 -61.0993211771 61.3148288872 86.560293904 134.9028914 -135.0971086 1.41337147187e-96 -1.60946633396e-101 -8.6726632432e-101 8.82099053919e-101 -100.554653739 7.93582637982e-92
0.050983734999 0.079976649736 334.502971739 -61.083526903 -328.868771194 0 -390.170497386 0 -387.830268797 390.170497386 -90 -61.083526903 61.3017261913 86.5398639511 134.901607948 -135.098392052 1.41338285383e-96 -1.20887196215e-101 -6.5172460866e-101 6.62860105007e-101 -100.549673276 7.93918427662e-92
0.050983734999 0.07999 334.555086842 -61.0716738064 -328.923986295 0 -390.215879116 0 -387.873528912 390.215879116 -90 -61.0716738064 61.2918928205 86.5245318011 134.900644453 -135.099355547 1.41339172582e-96 -9.06319496468e-102 -4.88793271459e-101 4.97138783902e-101 -100.545936875 7.94170683368e-92
0.060069187446 0.076915933327 368.10641276 -66.4637163278 -362.043632209 0 -429.058214003 0 -427.350089107 429.058214003 -90 -66.4637163278 67.0145817936 94.3847336407 134.768389802 -135.231610198 1.4132897019e-96 -3.16691462825e-100 -1.72508824985e-99 1.75397674341e-99 -100.434482537 9.61834649614e-92
0.060069187446 0.077287019364 368.94891804 -66.2892181657 -362.93206843 0 -429.801166448 0 -428.807151571 429.801166448 -90 -66.2892181657 66.8690980182 94.1585617416 134.755309456 -135.244690544 1.41337260915e-96 -3.18819214349e-100 -1.74560581746e-99 1.77454270417e-99 -100.382848518 9.6630734305e-92
0.060069187446 0.077664969066 370.592975585 -65.9491306833 -364.665102129 0 -431.250569304 0 -430.280690674 431.250569304 -90 -65.9491306833 66.5854671744 93.7177097915 134.729734963 -135.270265037 1.41346530474e-96 -3.16296826673e-100 -1.74885249742e-99 1.77728473579e-99 -100.282621668 9.75005439027e-92
0.060069187446 0.078033822604 372.189662244 -65.6196282793 -366.346982252 0 -432.6574744 0 -431.708502832 432.6574744 -90 -65.6196282793 66.3104921481 93.2904746226 134.70480231 -135.29519769 1.41346910664e-96 -3.01248050933e-100 -1.68157032346e-99 1.7083971679e-99 -100.186275126 9.83427746473e-92
0.060069187446 0.078379102643 373.680891207 -65.3125548043 -367.916713672 0 -433.970793435 0 -433.03581344 433.970793435 -90 -65.3125548043 66.0540797632 92.8922268692 134.681428918 -135.318571082 1.41343703175e-96 -2.75938769025e-100 -1.55405807627e-99 1.57841655756e-99 -100.097159632 9.91300633289e-92
0.060069187446 0.078689931403 375.023233838 -65.0366622195 -369.328857052 0 -435.152432095 0 -434.222988984 435.152432095 -90 -65.0366622195 65.8235750425 92.5343394717 134.660314252 -135.339685748 1.41337612365e-96 -2.43815988199e-100 -1.38421098227e-99 1.40556419713e-99 -100.017646685 9.98391488875e-92
0.060069187446 0.078960057578 376.19160599 -64.796907769 -370.557327442 0 -436.180490337 0 -435.248747495 436.180490337 -90 -64.796907769 65.6231628946 92.2232692169 134.641876211 -135.358123789 1.41330418618e-96 -2.0862171871e-100 -1.19272974476e-99 1.21087488611e-99 -99.9489748742 1.00457060201e-91
0.060069187446 0.079187714856 377.178775134 -64.5945996529 -371.594804403 0 -437.048783372 0 -436.108913898 437.048783372 -90 -64.5945996529 65.4539789689 91.9607390794 134.626252792 -135.373747208 1.41324620738e-96 -1.73618865557e-100 -9.98522373733e-100 1.01353493172e-99 -99.8913374594 1.00980840286e-91
0.060069187446 0.079374668832 377.991832701 -64.4281454711 -372.448977192 0 -437.763704936 0 -436.812319845 437.763704936 -90 -64.4281454711 65.3147277438 91.7447046793 134.613353075 -135.386646925 1.41321634414e-96 -1.4115525151e-100 -8.15807493904e-100 8.27954073455e-100 -99.844127238 1.01414546333e-91