TITLE = "Electromagnetic Field"
VARIABLES = X Y E ER EI EvR EvI EvR' EvI' Ev EvPhase EpR EpI Ep EpPhase EpToEvPhaseShift elConductivity Jr Ji J Jphase QJ
ZONE N=283, E=249, F=FEPOINT, ET=QUADRILATERAL
0.60159632234 0.060592059178 48.9160715821 -8.97602970455 -48.0854754553 0 -55.5668289563 0 -60.3017107245 55.5668289563 -90 -8.97602970455 7.48135350095 11.6850228696 140.189423704 -129.810576296 0.38889255758 -1.2215655319e-05 -6.54404690435e-05 6.65708436443e-05 -100.573608953 465.267567332
0.61711284718 0.058658077481 45.230914913 -8.37265730697 -44.4491652918 0 -51.2766273503 0 -51.1105173993 51.2766273503 -90 -8.37265730697 6.82746205844 10.8041782272 140.855017194 -129.144982806 0.8198766884 -2.44830405355e-05 -0.000129302073472 0.000131599706902 -100.675209498 776.861349843
0.63228072927 0.056767550663 38.8357750344 -7.31503478632 -38.1405797413 0 -43.8423191434 0 -43.6474400192 43.8423191434 -90 -7.31503478632 5.70173940201 9.27521853872 142.111597811 -127.888402189 3.2271425302 -8.88205081216e-05 -0.000460515715639 0.00046900337749 -100.863840033 2226.81408813
0.64694020654 0.054940391488 33.6159031154 -6.43552178397 -32.9940951594 0 -37.7954705876 0 -37.5941173919 37.7954705876 -90 -6.43552178397 4.8013754282 8.02969027897 143.315492532 -126.684507468 10.5664042121 -0.00026698497799 -0.00136280060621 0.00138870803431 -101.043218939 5574.92643374
0.66097384518 0.053191236921 29.3473517962 -5.70597572107 -28.787270806 0 -32.8712941552 0 -32.6760427671 32.8712941552 -90 -5.70597572107 4.08402334924 7.01725182043 144.442324597 -125.557675403 22.2680087984 -0.000515616845971 -0.00259523386947 0.00264596191597 -101.217044173 9268.6597409
0.67430359136 0.051529815603 25.8440305772 -5.09998193852 -25.3357982738 0 -28.8481439524 0 -28.6653450808 28.8481439524 -90 -5.09998193852 3.51234567859 6.19267384756 145.474457976 -124.525542024 34.2132142359 -0.00071859806417 -0.0035653980622 0.00363709699675 -101.386434869 11239.2042728
0.68688592427 0.049961551974 22.9546299441 -4.59487450078 -22.4900220791 0 -25.5451746242 0 -25.3773971158 25.5451746242 -90 -4.59487450078 3.05515254507 5.51802659074 146.404184078 -123.595815922 44.5107755599 -0.000841720980646 -0.00411683091311 0.00420200273072 -101.55170356 11622.8026405
0.69870606745 0.048488287774 20.5576974891 -4.17194598833 -20.1299024872 0 -22.8172124325 0 -22.6648496513 22.8172124325 -90 -4.17194598833 2.68730994527 4.96265104117 147.232637315 -122.767362685 53.3442835005 -0.000904698574386 -0.0043631466613 0.00445595858444 -101.713088469 11211.4728287
0.70977198347 0.047109030546 18.5564299227 -3.81587620831 -18.1598333319 0 -20.5488542236 0 -20.411136507 20.5488542236 -90 -3.81587620831 2.3890208917 4.50211753923 147.966404818 -122.033595182 61.125869273 -0.000928362183896 -0.00441669440514 0.00451321209661 -101.870592946 10487.4852659
0.72010869228 0.045820661799 16.8739209583 -3.51418558394 -16.5039150978 0 -18.6488406895 0 -18.5244471212 18.6488406895 -90 -3.51418558394 2.14492559164 4.11712057206 148.614664712 -121.385335288 68.0913294773 -0.000926225864515 -0.00434897665001 0.00444651849237 -102.02394451 9671.0940112
0.72975322916 0.044618565455 16.0918629041 -3.37337130993 -15.7343070305 0 -17.7673688968 0 -16.9325607362 17.7673688968 -90 -3.37337130993 2.03306186636 3.93865136146 148.923489933 -121.076510067 71.4468837648 -0.000919919374528 -0.00429075027688 0.00438825587155 -102.100794322 9250.5156763
0.55518672458 0.066522073174 81.2610235047 -13.8590431308 -80.0704743618 0 -93.2716935824 0 -101.795045519 93.2716935824 -90 -13.8590431308 13.2012192206 19.1401479987 136.392562695 -133.607437305 0.0094039095343 -3.29380689912e-07 -1.90299343453e-06 1.93128859852e-06 -99.8197812689 31.0486715422
0.55521407983 0.066674027332 81.3539666322 -13.8500313961 -80.1663515832 0 -93.3642729659 0 -101.963420762 93.3642729659 -90 -13.8500313961 13.1979213828 19.1313489368 136.38109462 -133.61890538 0.00869906451768 -3.15428547367e-07 -1.82561771415e-06 1.85266713514e-06 -99.802030128 28.7823165929
0.55523833625 0.06683927283 81.5443540317 -13.8322929814 -80.3626073326 0 -93.5543913952 0 -102.151845415 93.5543913952 -90 -13.8322929814 13.1917840626 19.1142750931 136.357731544 -133.642268456 0.00736018363567 -2.88412799787e-07 -1.6754672948e-06 1.70010967254e-06 -99.766276153 24.465427072
0.5552582941 0.067021589891 81.7576330021 -13.8139590053 -80.5821585031 0 -93.768383465 0 -102.366374085 93.768383465 -90 -13.8139590053 13.1862249619 19.097172895 136.331837956 -133.668162044 0.00607486836458 -2.60536654768e-07 -1.51963776683e-06 1.54181016465e-06 -99.7275195834 20.2974383851
0.55527260059 0.067225257559 81.9996159002 -13.7949317992 -80.8309090804 0 -94.0123425734 0 -102.613837504 94.0123425734 -90 -13.7949317992 13.1814334929 19.080103726 136.302793079 -133.697206921 0.00485307123875 -2.3016633844e-07 -1.34843682562e-06 1.36793958039e-06 -99.6850553932 16.3096949909
0.55527983405 0.067454786481 82.2762511889 -13.7751198671 -81.1148959561 0 -94.2925019817 0 -102.901405914 94.2925019817 -90 -13.7751198671 13.1776060255 19.0631388069 136.269972027 -133.730027973 0.00371508719802 -1.96104487153e-07 -1.15449118013e-06 1.17102822593e-06 -99.6381943957 12.5678752606
0.55527866259 0.067714412637 82.5928776855 -13.7544546255 -81.4395290619 0 -94.6144521659 0 -103.235769974 94.6144521659 -90 -13.7544546255 13.174923104 19.0463556473 136.232830354 -133.767169646 0.00269109615737 -1.58301953634e-07 -9.36964904954e-07 9.50243623368e-07 -99.5863679672 9.1721247277
0.55526808863 0.068007311781 82.9531530207 -13.732912436 -81.8085010487 0 -94.9820174354 0 -103.621878821 94.9820174354 -90 -13.732912436 13.1735163868 19.0298310997 136.191022421 -133.808977579 0.00181668743552 -1.18523433345e-07 -7.05677518449e-07 7.15561808572e-07 -99.5292692121 6.24424036938
0.55524776417 0.068334582101 83.357767406 -13.7105382023 -82.2224805179 0 -95.3959089442 0 -104.061316051 95.3959089442 -90 -13.7105382023 13.1734284264 19.0136303739 136.144539135 -133.855460865 0.00112303373755 -8.03719245866e-08 -4.81612132186e-07 4.88272430338e-07 -99.4670098767 3.89636424336
0.55521831481 0.068694189077 83.803229334 -13.6874632919 -82.6778812175 0 -95.8524549374 0 -104.550630578 95.8524549374 -90 -13.6874632919 13.17457372 18.9977925277 136.093831539 -133.906168461 0.000623921024886 -4.81643040372e-08 -2.90610931487e-07 2.94575190994e-07 -99.4002504797 2.18693404507
0.55518156076 0.069080230842 84.2811559108 -13.6639089779 -83.1661472607 0 -96.3428615486 0 -105.08019852 96.3428615486 -90 -13.6639089779 13.1767142879 18.982315269 136.039872694 -133.960127306 0.000306137018349 -2.49429393417e-08 -1.51596895186e-07 1.53635207519e-07 -99.330248028 1.08482974637
0.55514050508 0.069482947875 84.7784988222 -13.6401691317 -83.6739911119 0 -96.85345471 0 -105.634288523 96.85345471 -90 -13.6401691317 13.1794635981 18.9671442958 135.984114258 -134.015885742 0.000131064259418 -1.09855160618e-08 -6.72709270504e-08 6.81620179283e-08 -99.2587758958 0.469751215831
0.55509901037 0.069889739498 85.278904557 -13.6165728189 -84.1847833555 0 -97.367109342 0 -106.192735745 97.367109342 -90 -13.6165728189 13.1823259865 18.9521729319 135.928323118 -134.071676882 4.8898625301e-05 -4.09827497064e-09 -2.52878905139e-08 2.56178345702e-08 -99.1879092161 0.177291396394
0.55506120965 0.070287057647 85.5324283204 -13.6046287921 -84.4435336175 0 -97.6272781149 0 -106.733995307 97.6272781149 -90 -13.6046287921 13.1837444974 18.9445782097 135.900125944 -134.099874056 2.44264988587e-05 -2.0107505402e-09 -1.24806698833e-08 1.26416074322e-08 -99.1522314255 0.0893496449174
0.57039820528 0.064648578142 74.3733300117 -12.848531124 -73.2548905652 0 -85.2406555271 0 -85.4140508185 85.2406555271 -90 -12.848531124 11.9857649619 17.5720650079 137.039528754 -132.960471246 0.0267795838186 -9.39088395217e-07 -5.30600054759e-06 5.38847024816e-06 -99.9593493833 66.8826128053
0.57043088718 0.06482150234 74.4865358156 -12.8429083581 -73.3708063741 0 -85.3576636013 0 -85.5846073854 85.3576636013 -90 -12.8429083581 11.9868572271 17.5686940646 137.024290849 -132.975709151 0.0251184766334 -9.07172191147e-07 -5.13581146738e-06 5.21532351901e-06 -99.9395709034 62.8455106786
0.57046070983 0.065006698614 74.717440861 -12.831995865 -73.6071217731 0 -85.596654751 0 -85.7712119586 85.596654751 -90 -12.831995865 11.9895329779 17.5625337762 136.993376295 -133.006623705 0.0219433627049 -8.46758948419e-07 -4.8134365973e-06 4.88735493252e-06 -99.8998159592 55.1045419029
0.5704864448 0.065207765268 74.9711253354 -12.8209197842 -73.8665491809 0 -85.8597454254 0 -85.9789380832 85.8597454254 -90 -12.8209197842 11.9931962445 17.5569335233 136.959710845 -133.040289155 0.0188701163647 -7.87484601304e-07 -4.49604308481e-06 4.56449227252e-06 -99.8571716807 47.5640301359
0.57050670679 0.065428776687 75.2507881881 -12.8092872592 -74.1523938707 0 -86.1500581056 0 -86.2135128569 86.1500581056 -90 -12.8092872592 11.9976642349 17.5514830092 136.922850273 -133.077149727 0.015905443443 -7.25236586126e-07 -4.16008790621e-06 4.22283593225e-06 -99.8109837732 40.2410398666
0.57052003905 0.065674028985 75.5596375968 -12.7966942008 -74.4679686438 0 -86.4707097062 0 -86.4809528164 86.4707097062 -90 -12.7966942008 12.0027410625 17.5457552987 136.882353694 -133.117646306 0.0130725305131 -6.55768893534e-07 -3.78070779808e-06 3.83716276961e-06 -99.7606129048 33.1954802264
0.57052507461 0.065947557875 75.9005681621 -12.7827932034 -74.8162541476 0 -86.8245126964 0 -86.7868796615 86.8245126964 -90 -12.7827932034 12.0082585488 17.5393843358 136.837837633 -133.162162367 0.0104127946413 -5.75868107412e-07 -3.33833012709e-06 3.38763877135e-06 -99.7055318134 26.5360629224
0.57052078524 0.066252390149 76.275442708 -12.7673513126 -75.1991605844 0 -87.2132496107 0 -87.1354642044 87.2132496107 -90 -12.7673513126 12.0140890262 17.5321158001 136.789075012 -133.210924988 0.00798381627957 -4.84962473671e-07 -2.82809547509e-06 2.86937770771e-06 -99.6454608604 20.4162336547
0.57050680303 0.066589574032 76.6840062 -12.7502832656 -75.6164218298 0 -87.6365420508 0 -87.5280651044 87.6365420508 -90 -12.7502832656 12.020120221 17.5238139264 136.736130619 -133.263869381 0.00585068671704 -3.86463699256e-07 -2.26813874229e-06 2.30082952896e-06 -99.5805224451 15.0121682427
0.57048375167 0.066957172863 77.1227036731 -12.7316553813 -76.0643990762 0 -88.090601804 0 -87.9618262011 88.090601804 -90 -12.7316553813 12.0262027278 17.5144278725 136.679496895 -133.320503105 0.00407031182452 -2.87733756971e-07 -1.70022956044e-06 1.72440586254e-06 -99.5113715251 10.4810799924
0.5704534739 0.067349563502 77.5838633483 -12.7116624831 -76.5352611983 0 -88.5673566409 0 -88.4287142142 88.5673566409 -90 -12.7116624831 12.0320954427 17.5039367593 136.620174255 -133.379825745 0.00267329553959 -1.98016149348e-07 -1.17848639457e-06 1.19500722803e-06 -99.4392458322 6.91204744038
0.57041902227 0.067757443754 78.0557167369 -12.6905844264 -77.017018017 0 -89.0544549177 0 -88.9155619649 89.0544549177 -90 -12.6905844264 12.0374369007 17.4922974981 136.55964343 -133.44035657 0.00165168696998 -1.2503849116e-07 -7.4968815334e-07 7.60044401512e-07 -99.3658895976 4.29248687618
0.57038433195 0.068168799372 78.5234916162 -12.6687312461 -77.4946420728 0 -89.5364013188 0 -89.4054607222 89.5364013188 -90 -12.6687312461 12.0417592461 17.4794137772 136.499709742 -133.500290258 0.000959513619718 -7.22474380293e-08 -4.36430906152e-07 4.42370621833e-07 -99.2933435422 2.50972659668
0.57035362088 0.068570708373 78.7586584488 -12.6574406167 -77.7347777317 0 -89.7784100718 0 -89.8803156777 89.7784100718 -90 -12.6574406167 12.0436323401 17.4725144211 136.469582752 -133.530417248 0.000683657286055 -5.06663975097e-08 -3.07604756413e-07 3.11749569823e-07 -99.2568740687 1.79686659179
0.58597407132 0.062730182315 62.8003336153 -11.1138511458 -61.8089628618 0 -71.7410444651 0 -71.7294451231 71.7410444651 -90 -11.1138511458 9.93208160329 14.9060688889 138.266226266 -131.733773734 0.0875299040417 -3.00307580576e-06 -1.6593142935e-05 1.68627311048e-05 -100.203250398 159.385236268
0.58601353396 0.06292439538 62.9035391127 -11.1076726076 -61.9149282856 0 -71.8478749741 0 -71.8991910556 71.8478749741 -90 -11.1076726076 9.93294668843 14.9020338991 138.247761955 -131.752238045 0.0827714932509 -2.90984970317e-06 -1.61145586213e-05 1.63751959692e-05 -100.180514935 151.13471166
0.58605055906 0.063129819122 63.1139273072 -11.0956732518 -62.1308141276 0 -72.0659754059 0 -72.0815229511 72.0659754059 -90 -11.0956732518 9.93516127825 14.8945570851 138.210347235 -131.789652765 0.0736603897132 -2.73719156385e-06 -1.52295991236e-05 1.5473642313e-05 -100.134902393 135.273852372
0.58608393455 0.063349860548 63.342941883 -11.0836923451 -62.3655745245 0 -72.3039576244 0 -72.2806423864 72.3039576244 -90 -11.0836923451 9.93838309989 14.8877726925 138.170049903 -131.829950097 0.064886534501 -2.57800325005e-06 -1.4415026873e-05 1.46437597964e-05 -100.086633592 119.872738462
0.58611229361 0.063588378862 63.5935899927 -11.0714679252 -62.6223016288 0 -72.5648602091 0 -72.5012944406 72.5648602091 -90 -11.0714679252 9.94255858034 14.8814515245 138.126348366 -131.873651634 0.0564215074389 -2.42134541705e-06 -1.36105707753e-05 1.38242925384e-05 -100.035063203 104.878514726
0.58613419811 0.06384944463 63.8687454048 -11.0587073531 -62.9039541991 0 -72.8515526919 0 -72.74846717 72.8515526919 -90 -11.0587073531 9.94759849277 14.8753182957 138.078741928 -131.921258072 0.0482740038293 -2.25441911372e-06 -1.27439737688e-05 1.29418586546e-05 -99.9795654769 90.3041943005
0.58614829651 0.06413688303 64.1708421874 -11.0451372003 -63.2130374825 0 -73.1664380471 0 -73.0268259882 73.1664380471 -90 -11.0451372003 9.95340056463 14.8691038896 138.026813903 -131.973186097 0.040495835866 -2.06450099415e-06 -1.1741344096e-05 1.19214796794e-05 -99.9196299423 76.2434704739
0.5861535679 0.064453564267 64.5013052816 -11.030553057 -63.5510167242 0 -73.5108749528 0 -73.339839672 73.5108749528 -90 -11.030553057 9.95985822861 14.8625881763 137.970335002 -132.029664998 0.0331831736101 -1.84245770995e-06 -1.05468607207e-05 1.07065957809e-05 -99.8549928144 62.8778020879
0.5861496378 0.064800484125 64.8597195589 -11.0148540448 -63.9174691233 0 -73.8843132999 0 -73.6886524889 73.8843132999 -90 -11.0148540448 9.96684417659 14.8556143903 137.909400343 -132.090599657 0.0264672467859 -1.58698804804e-06 -9.14757077329e-06 9.28422188805e-06 -99.7857853697 50.4642909024
0.58613710415 0.065175809092 65.2429251174 -10.998053143 -64.3091667427 0 -74.2833393303 0 -74.0709198371 74.2833393303 -90 -10.998053143 9.9741725876 14.8480709731 137.844565729 -132.155434271 0.0204911385326 -1.30751060222e-06 -7.59173439032e-06 7.70351478137e-06 -99.7126583473 39.2959725309
0.58611776229 0.06557420973 65.6443920988 -10.9802625835 -64.7194488751 0 -74.7010076524 0 -74.480005979 74.7010076524 -90 -10.9802625835 9.98155877727 14.8398528997 137.776926888 -132.223073112 0.0153767704307 -1.02332795543e-06 -5.98667485418e-06 6.07351191649e-06 -99.6368281622 29.639464396
0.5860945983 0.065986865945 66.0542583115 -10.9616604147 -65.1382707184 0 -75.1268715712 0 -74.905012905 75.1268715712 -90 -10.9616604147 9.98860085282 14.8308236824 137.70808642 -132.29191358 0.0111908485474 -7.58132242642e-07 -4.46931239133e-06 4.53316146776e-06 -99.5600004638 21.6648603618
0.58607146976 0.066402382079 66.4602342228 -10.9424480211 -65.5531324789 0 -75.5479324293 0 -75.3319274756 75.5479324293 -90 -10.9424480211 9.99479995044 14.8207967688 137.639986153 -132.360013847 0.00792308296143 -5.32049179657e-07 -3.16047617463e-06 3.20494945227e-06 -99.4841642046 15.3945047882
0.58605251777 0.066808497031 66.6641467435 -10.9325394468 -65.7615213385 0 -75.7591900792 0 -75.7457361996 75.7591900792 -90 -10.9325394468 9.99766874063 14.8154097335 137.60578342 -132.39421658 0.00648952900344 -4.29156618944e-07 -2.56102778511e-06 2.59673739598e-06 -99.4460905163 12.63400952
0.60164530132 0.060800019248 51.7829239923 -9.40492897484 -50.9215862442 0 -58.8957853105 0 -60.4614647126 58.8957853105 -90 -9.40492897484 7.97419906629 12.3312052332 139.753483747 -130.246516253 0.291872473059 -9.38729483989e-06 -5.05864410744e-05 5.14501261788e-05 -100.472918306 369.358056923
0.60169338299 0.061015411535 53.3312413376 -9.61586454316 -52.4570951541 0 -60.6820073126 0 -60.6280046264 60.6820073126 -90 -9.61586454316 8.22491215848 12.6544080628 139.510224092 -130.489775908 0.229165203788 -7.66139775016e-06 -4.15810641023e-05 4.22810451258e-05 -100.395919948 303.976996927
0.60173958331 0.061240936195 53.524111474 -9.60315799595 -52.6554909541 0 -60.8824967744 0 -60.8042460422 60.8824967744 -90 -9.60315799595 8.22700582026 12.646105365 139.46526322 -130.53473678 0.203606090487 -7.1289960987e-06 -3.88970489153e-05 3.95450005647e-05 -100.343958269 272.159529559
0.60178274137 0.061479803816 53.7317901587 -9.59053702109 -52.8688770239 0 -61.0988781365 0 -60.9936450373 61.0988781365 -90 -9.59053702109 8.2300011126 12.6384625796 139.417391858 -130.582608142 0.179773232038 -6.66296385555e-06 -3.65561020788e-05 3.71584059151e-05 -100.289619438 242.218331229
0.60182154829 0.061735652631 53.9570164831 -9.57783253925 -53.1000602196 0 -61.333985241 0 -61.2001063397 61.333985241 -90 -9.57783253925 8.23392502146 12.6313706369 139.366017472 -130.633982528 0.157412369604 -6.23680251726e-06 -3.44182435121e-05 3.49787953866e-05 -100.232270888 213.847740539
0.60185462627 0.062012321534 54.2023638187 -9.56484100798 -53.3516822317 0 -61.5904477999 0 -61.4277365904 61.5904477999 -90 -9.56484100798 8.23876556819 12.6246695231 139.310577758 -130.689422242 0.136378206397 -5.82064390813e-06 -3.23212116626e-05 3.28411801918e-05 -100.171302328 186.872276256
0.60188067858 0.062313419331 54.4699406125 -9.55135803963 -53.6259093588 0 -61.8703883492 0 -61.680379456 61.8703883492 -90 -9.55135803963 8.24447899046 12.618178473 139.250614758 -130.749385242 0.116636092017 -5.38371537595e-06 -3.00929438474e-05 3.05707663908e-05 -100.1062198 161.256247324
0.60189872158 0.062641655097 54.7609125592 -9.53721733266 -53.9239405429 0 -62.1749315536 0 -61.9608966458 62.1749315536 -90 -9.53721733266 8.25099101074 12.6117262024 139.185885698 -130.814114302 0.0982553059287 -4.89975956503e-06 -2.75809923076e-05 2.8012862951e-05 -100.036773116 137.103727179
0.60190838539 0.062997970268 55.074847356 -9.52232214652 -54.2453376168 0 -62.5035209253 0 -62.2702394737 62.5035209253 -90 -9.52232214652 8.25818330848 12.6051656135 139.116503385 -130.883496615 0.0813860554675 -4.35452467902e-06 -2.46950500404e-05 2.50760585429e-05 -99.9630984388 114.637207732
0.60191022491 0.063380636713 55.4090171649 -9.50665914024 -54.587317098 0 -62.8531831469 0 -62.6064891368 62.8531831469 -90 -9.50665914024 8.26586604889 12.5983657505 139.043072765 -130.956927235 0.0662197352335 -3.75254128686e-06 -2.14479126577e-05 2.17737339973e-05 -99.8858366736 94.1519487559
0.60190593523 0.063784626217 55.7579268457 -9.49029114155 -54.9442761597 0 -63.218025743 0 -62.9641936523 63.218025743 -90 -9.49029114155 8.27374958339 12.591187011 138.96676767 -131.03323233 0.0529342174721 -3.11893816244e-06 -1.79707488396e-05 1.82394144215e-05 -99.8061757444 75.9462213028
0.60189834729 0.064201613881 56.1133707863 -9.47333291299 -55.3078586204 0 -63.5892936483 0 -63.334387884 63.5892936483 -90 -9.47333291299 8.28143502789 12.5834557731 138.889291574 -131.110708426 0.0416369529575 -2.49349151209e-06 -1.44847351718e-05 1.46978042249e-05 -99.7257742767 60.2414822608
0.60189112568 0.064620840161 56.4651873758 -9.45591873691 -55.6677295258 0 -63.9561677039 0 -63.7055342229 63.9561677039 -90 -9.45591873691 8.28843817812 12.5749549128 138.812698884 -131.187301116 0.0323262007195 -1.91854159314e-06 -1.12352434597e-05 1.13978821109e-05 -99.646560429 47.1194188232
0.60188820956 0.065030724279 56.6417547752 -9.44696395821 -55.8483479101 0 -64.1401053859 0 -64.0652620944 64.1401053859 -90 -9.44696395821 8.29175747578 12.5704037808 138.774257809 -131.225742191 0.0280939766178 -1.64432638878e-06 -9.67430149727e-06 9.8130541772e-06 -99.6068427865 41.1103630484
0.61717192018 0.058887646958 45.3141742432 -8.36588091007 -44.5351564612 0 -51.3632254118 0 -51.267221144 51.3632254118 -90 -8.36588091007 6.82806895063 10.799306669 140.829612794 -129.170387206 0.760822334861 -2.29887161084e-05 -0.000121743494172 0.000123895101045 -100.646553167 724.430223692
0.6172306766 0.059123743573 45.4828273821 -8.35257872244 -44.7092398403 0 -51.5388112607 0 -51.4288950125 51.5388112607 -90 -8.35257872244 6.82957142034 10.7899448506 140.778419081 -129.221580919 0.653120934867 -2.03205397323e-05 -0.000108244755475 0.000110135730903 -100.58929066 628.392845534
0.61728819574 0.059368899782 45.6606436107 -8.33944050293 -44.8925667753 0 -51.7242934185 0 -51.5979301814 51.7242934185 -90 -8.33944050293 6.83172664319 10.781132258 140.725007775 -129.274992225 0.561385191852 -1.81532251107e-05 -9.72809129936e-05 9.89602808549e-05 -100.530548243 545.811962463
0.61734339238 0.059626128553 45.8500100441 -8.32639835284 -45.0875730658 0 -51.9222051259 0 -51.7771623462 51.9222051259 -90 -8.32639835284 6.83463206015 10.7728793551 140.668750657 -129.331249343 0.482308209016 -1.63688312075e-05 -8.82633148004e-05 8.97684157534e-05 -100.469742955 473.915360312
0.61739504334 0.059898845744 46.0533537768 -8.31334442649 -45.2967402195 0 -52.1350975106 0 -51.9697964702 52.1350975106 -90 -8.31334442649 6.83835729111 10.7651486123 140.608998035 -129.391001965 0.413362803522 -1.48619456854e-05 -8.06566282745e-05 8.20145285487e-05 -100.406257659 410.566418333
0.61744186066 0.060190656995 46.2729535993 -8.300140257 -45.5224019301 0 -52.3653403294 0 -52.179204354 52.3653403294 -90 -8.300140257 6.8429383993 10.7578581415 140.545133011 -129.454866989 0.352684111996 -1.35358380239e-05 -7.39588860084e-05 7.51874122396e-05 -100.33949915 354.180835622
0.61748263043 0.060504953067 46.5106553875 -8.28663823887 -45.7664507151 0 -52.6148255714 0 -52.408543166 52.6148255714 -90 -8.28663823887 6.84837485624 10.7508963643 140.476655946 -129.523344054 0.298972222408 -1.23031343517e-05 -6.77052191071e-05 6.88140463018e-05 -100.268990114 303.659894928
0.61751642786 0.060844280323 46.7674589513 -8.27271025274 -46.0299132124 0 -52.8845372624 0 -52.660165051 52.8845372624 -90 -8.27271025274 6.85462405003 10.744140493 140.403303725 -129.596696275 0.251384316936 -1.10911991682e-05 -6.14976082899e-05 6.24898224063e-05 -100.194492516 258.311240407
0.61754289631 0.061209524663 47.0429853741 -8.25827404099 -46.3124053863 0 -53.1739932182 0 -52.9348545604 53.1739932182 -90 -8.25827404099 6.86158783195 10.7374679893 140.325194818 -129.674805182 0.209417539534 -9.85141609757e-06 -5.50580392774e-05 5.59324938617e-05 -100.116144544 217.756896576
0.6175625364 0.061599062942 47.3349293552 -8.24330783257 -46.6115757807 0 -53.4806671599 0 -53.2310397908 53.4806671599 -90 -8.24330783257 6.86909137923 10.7307537902 140.242966528 -129.757033472 0.172788647606 -8.5686204016e-06 -4.82860440602e-05 4.9040469376e-05 -100.034573235 181.833356808
0.61757690695 0.062008169043 47.6387023149 -8.22784829318 -46.9227465576 0 -53.799610202 0 -53.5442465197 53.799610202 -90 -8.22784829318 6.87686364436 10.7238554559 140.157849014 -129.842150986 0.141302108581 -7.26397742574e-06 -4.12834430024e-05 4.19176703595e-05 -99.9509330736 150.472739458
0.61758862244 0.062429015719 47.9475028229 -8.21197367091 -47.2389914879 0 -54.1235259368 0 -53.8671130211 54.1235259368 -90 -8.21197367091 6.88453444897 10.7165974788 140.071620107 -129.928379893 0.114735813233 -5.98719968509e-06 -3.43205616214e-05 3.48389081063e-05 -99.8668301386 123.590978625
0.61760107395 0.062851483579 48.2529493623 -8.19577919358 -47.5517854913 0 -54.4434453166 0 -54.1901609771 54.4434453166 -90 -8.19577919358 6.89165982534 10.7087679225 139.986417322 -130.013582678 0.0927675923776 -4.79930672309e-06 -2.77460187714e-05 2.81580562081e-05 -99.7841261844 101.007274824
0.61761791098 0.063264677321 48.4061321134 -8.18748137025 -47.708657515 0 -54.6037371326 0 -54.5032236196 54.6037371326 -90 -8.18748137025 6.89507961758 10.7046136854 139.943679947 -130.056320053 0.0827360152074 -4.22647310144e-06 -2.45514915964e-05 2.49126361295e-05 -99.7427121667 90.6040658288
0.63235196215 0.05701794327 38.914000869 -7.30819823237 -38.2215321017 0 -43.9240669147 0 -43.7997399531 43.9240669147 -90 -7.30819823237 5.70253481303 9.27031321865 142.081555693 -127.918444307 2.93407386646 -8.14782865128e-05 -0.000423691425024 0.000431455092541 -100.831409738 2033.95544649
0.63242349335 0.057273980107 39.0719667543 -7.29471676341 -38.3849159944 0 -44.0892472345 0 -43.9555730468 44.0892472345 -90 -7.29471676341 5.70433124009 9.26078554026 142.021140694 -127.978859306 2.40063877099 -6.82259200049e-05 -0.000357072455588 0.000363532339354 -100.766694641 1681.67636531
0.63249447826 0.057538027811 39.2367733941 -7.28135322562 -38.5551890363 0 -44.2618078685 0 -44.1169019942 44.2618078685 -90 -7.28135322562 5.70661883219 9.25166406365 141.958661257 -128.041338743 1.95352637801 -5.72983273364e-05 -0.000301868908229 0.000307259022894 -100.700815843 1384.05864868
0.63256392255 0.057812903917 39.4104677648 -7.26806789377 -38.7344379521 0 -44.4439392765 0 -44.2860553817 44.4439392765 -90 -7.26806789377 5.70950132445 9.24298269156 141.893461364 -128.106538636 1.58135216205 -4.83051732969e-05 -0.00025623201425 0.000260745767385 -100.633206889 1134.18344027
0.63263070604 0.058101804296 39.5951582235 -7.25479231008 -38.9248152086 0 -44.637881112 0 -44.4656658482 44.637881112 -90 -7.25479231008 5.71306590337 9.23474304616 141.824854639 -128.175145361 1.27527495282 -4.09347183326e-05 -0.000218680429839 0.000222478914962 -100.563268944 926.724282134
0.63269364898 0.058408103704 39.7928378466 -7.24143355695 -39.128358206 0 -44.845732219 0 -44.6585036786 44.845732219 -90 -7.24143355695 5.71737401299 9.22691221125 141.752184787 -128.247815213 1.02610442729 -3.48755134146e-05 -0.00018769479667 0.000190907570916 -100.490427872 756.052100015
0.6327516379 0.058734976839 40.0051230693 -7.22788775507 -39.3467208992 0 -45.0691737357 0 -44.8671632183 45.0691737357 -90 -7.22788775507 5.72245283654 9.21942806382 141.674918284 -128.325081716 0.824789381773 -2.98303699499e-05 -0.000161791032894 0.000164518191104 -100.414223848 616.547516312
0.63280382071 0.05908480843 40.2328930535 -7.2140605164 -39.5808037385 0 -45.3090890625 0 -45.0935773718 45.3090890625 -90 -7.2140605164 5.72828532401 9.21220902313 141.592771356 -128.407228644 0.662914805685 -2.55344198874e-05 -0.000139618781635 0.000141934649034 -100.334430662 502.932161065
0.63284986009 0.059458428399 40.4758463558 -7.19988798779 -39.8303002555 0 -45.565096359 0 -45.3383905541 45.565096359 -90 -7.19988798779 5.73479610344 9.20516149301 141.505859953 -128.494140047 0.533123402252 -2.17754645103e-05 -0.000120076729352 0.000122035308246 -100.251187252 410.5605044
0.63289019642 0.059854316119 40.7320614487 -7.18535056378 -40.0932499057 0 -45.8350839811 0 -45.6003098203 45.8350839811 -90 -7.18535056378 5.7418340754 9.19817923072 141.414838128 -128.585161872 0.429232668217 -1.8406731676e-05 -0.000102392808823 0.000104034189813 -100.165104892 335.513725681
0.632926231 0.060268042873 40.9977226944 -7.17047390679 -40.3657622056 0 -46.1149208253 0 -45.8756556368 46.1149208253 -90 -7.17047390679 5.7491586197 9.19113478966 141.320969856 -128.679030144 0.34622336498 -1.53515069626e-05 -8.61647677772e-05 8.75217003468e-05 -100.077302457 274.605504414
0.63296032497 0.060692272493 41.2671970169 -7.15531744125 -40.6420996849 0 -46.3985404554 0 -46.1583736328 46.3985404554 -90 -7.15531744125 5.7564407705 9.18387041895 141.22607909 -128.77392091 0.280095205288 -1.25933934035e-05 -7.1323260985e-05 7.24265765552e-05 -99.9893313303 225.29544781
0.63299554687 0.06111751822 41.5335671334 -7.13995552004 -40.9152251839 0 -46.6785134017 0 -46.4406679913 46.6785134017 -90 -7.13995552004 5.76328821775 9.17619831338 141.132355055 -128.867644945 0.227649309494 -1.01525404697e-05 -5.80128352146e-05 5.88945498566e-05 -99.9029849557 185.546747516
0.63303520267 0.061533563 40.7552701096 -6.97094819563 -40.1546611862 0 -45.7593125232 0 -46.7141756332 45.7593125232 -90 -6.97094819563 5.60465133705 8.94499439007 141.238217056 -128.761782944 0.214890645062 -9.17776145689e-06 -5.27884681541e-05 5.3580366269e-05 -99.8508832105 171.290369239
0.6330822877 0.061931123445 38.8387834521 -6.63219558534 -38.2683300101 0 -43.5325823075 0 -46.9713333797 43.5325823075 -90 -6.63219558534 5.26425229744 8.46748903355 141.559491865 -128.440508135 0.237443063533 -9.55434101506e-06 -5.51293565289e-05 5.59511517622e-05 -99.8321371388 179.085625192
0.64702558259 0.055210598764 33.6896330726 -6.42875816848 -33.0705219297 0 -37.8728716736 0 -37.7412747897 37.8728716736 -90 -6.42875816848 4.80234974384 8.02485106085 143.280867731 -126.719132269 9.80968644447 -0.000249466759829 -0.00127736275965 0.00130149640093 -101.006978027 5188.12267636
0.6471118794 0.055485601417 33.838125095 -6.41535922057 -33.2243742009 0 -38.0288104341 0 -37.8908404112 38.0288104341 -90 -6.41535922057 4.80443623318 8.0153639596 143.21129773 -126.78870227 8.35916438022 -0.000216221080365 -0.00111457823872 0.00113535840666 -100.934716678 4445.42248827
0.6471983347 0.055767604487 33.9916488841 -6.40201217966 -33.3832857486 0 -38.1901611476 0 -38.0444305551 38.1901611476 -90 -6.40201217966 4.80687539905 8.0061419608 143.139769311 -126.860230689 7.01210902144 -0.000185839881533 -0.000964569283758 0.000982309573736 -100.861576583 3752.95535258
0.64728405246 0.056059235008 34.1519386499 -6.38869577472 -33.5490232242 0 -38.3587895079 0 -38.2039637276 38.3587895079 -90 -6.38869577472 4.80976628372 7.99722864201 143.065624598 -126.934375402 5.77440048812 -0.000158062940749 -0.000826230267852 0.000841214324956 -100.787013451 3113.72265882