TITLE = "Electromagnetic Field"
VARIABLES = X Y E ER EI EvR EvI EvR' EvI' Ev EvPhase EpR EpI Ep EpPhase EpToEvPhaseShift elConductivity Jr Ji J Jphase QJ
ZONE N=272, E=237, F=FEPOINT, ET=QUADRILATERAL
1 0.086361350478 7.73862634904 -0.624728418726 -7.7133684064 0 -8.28779151769 0 -8.02183309627 8.28779151769 -90 -0.624728418726 0.574423111289 0.848673970348 137.402192471 -132.597807529 3.82519818222e-28 -5.52425175934e-33 -6.82065801911e-32 6.84299272165e-32 -94.630446515 1.14538555189e-26
1 0.088854616588 7.84709348541 -0.628555652474 -7.82187770365 0 -8.40350222485 0 -8.2433169118 8.40350222485 -90 -0.628555652474 0.581624521203 0.856373933839 137.22240641 -132.77759359 1.88628310014e-28 -2.72412100972e-33 -3.3634053297e-32 3.37441902624e-32 -94.5948190969 5.64812934323e-27
1 0.091417451013 8.06365683242 -0.636287102483 -8.03851218169 0 -8.6345185908 0 -8.47010448542 8.6345185908 -90 -0.636287102483 0.596006409107 0.871832389968 136.873738882 -133.126261118 6.34982834264e-43 -9.54005579115e-48 -1.19612125008e-46 1.19991971037e-46 -94.5262558232 2.00794607126e-41
1 0.094051447676 8.28533120867 -0.644373512436 -8.26023455016 0 -8.87096867734 0 -8.7022404732 8.87096867734 -90 -0.644373512436 0.610734127181 0.887817537985 136.536788447 -133.463211553 2.73233070334e-61 -4.27183930234e-66 -5.43605129242e-65 5.45281026298e-65 -94.4609898495 9.12279302829e-60
1 0.096758233794 8.51215349879 -0.652810302192 -8.48708286741 0 -9.11289141163 0 -8.93976453624 9.11289141163 -90 -0.652810302192 0.625808544221 0.904325161164 136.211269933 -133.788730067 3.8099900764e-78 -6.20029343347e-83 -8.00397956709e-82 8.02795897455e-82 -94.3988306327 1.34285560504e-76
1 0.099539470537 8.74415536458 -0.661593028382 -8.71908987491 0 -9.3603200218 0 -9.18271084664 9.3603200218 -90 -0.661593028382 0.641230146894 0.921350966726 135.896897785 -134.103102215 7.55053502619e-89 -1.27931710676e-93 -1.67450113195e-92 1.67938100607e-92 -94.3396008276 2.80863409239e-87
1 0.1023968537 8.98136273551 -0.67071727131 -8.9562825024 0 -9.61328149732 0 -9.43110756418 9.61328149732 -90 -0.67071727131 0.656998994918 0.938890464928 135.593385056 -134.406614944 1.29543172697e-93 -2.28667554277e-98 -3.03375119505e-97 3.04235685842e-97 -94.2831348646 5.08718937895e-92
1 0.10533211437 9.22379527382 -0.680178538434 -9.19868134518 0 -9.87179602166 0 -9.68497628158 9.87179602166 -90 -0.680178538434 0.673114676477 0.956938861825 135.300442972 -134.699557028 1.34179183396e-95 -2.47145229477e-100 -3.32339229052e-99 3.3325692154e-99 -94.2292777755 5.57137537348e-94
1 0.10834701967 9.47146580538 -0.689972180199 -9.4463001053 0 -10.1358763683 0 -9.94433144461 10.1358763683 -90 -0.689972180199 0.689576262956 0.975490961599 135.017780932 -134.982219068 1.40818990314e-96 -2.75342702593e-101 -3.76998013352e-100 3.78002203039e-100 -94.1778842121 6.31747325979e-95
1 0.11144337341 9.72437972828 -0.700093315725 -9.69914500879 0 -10.4055272724 0 -10.209179732 10.4055272724 -90 -0.700093315725 0.706382263582 0.994541076711 134.7451068 -135.2548932 1.40852635094e-96 -2.86980673948e-101 -3.97616036105e-100 3.98650371911e-100 -94.1288176147 6.66092404491e-95
1 0.11462301686 9.98253438371 -0.71053676555 -9.95721418413 0 -10.680744763 0 -10.4795194131 10.680744763 -90 -0.71053676555 0.723530578832 1.01408294284 134.482127408 -135.517872592 1.40865028996e-96 -2.99105567276e-101 -4.19187319821e-100 4.20253112648e-100 -94.0819495014 7.01987118442e-95
1 0.11788782946 10.2459184026 -0.721296990321 -10.2204970153 0 -10.9615154688 0 -10.7553396678 10.9615154688 -90 -0.721296990321 0.74101845347 1.03410963825 134.22854918 -135.77145082 1.40869360193e-96 -3.11760508901e-101 -4.41784112849e-100 4.42882802918e-100 -94.0371588522 7.39539817097e-95
1 0.12123972958 10.5145110175 -0.73236803388 -10.4889734598 0 -11.2478158884 0 -11.0366198777 11.2478158884 -90 -0.73236803388 0.758842428635 1.05461350591 133.984078842 -136.015921158 1.40870795627e-96 -3.24975023524e-101 -4.65461232988e-100 4.66594337854e-100 -93.9943315732 7.78827637419e-95
1 0.12468067527 10.7882813492 -0.74374347036 -10.7626133392 0 -11.539611633 0 -11.3233288837 11.539611633 -90 -0.74374347036 0.776998293781 1.07558607861 133.748424157 -136.251575843 1.40871251749e-96 -3.38772986372e-101 -4.90266430698e-100 4.91435523681e-100 -93.953360024 8.19913665746e-95
1 0.1282126651 10.9246392552 -0.749430393926 -10.8989034742 0 -11.6849416723 0 -11.6154242205 11.6849416723 -90 -0.749430393926 0.786038198052 1.08604878534 133.634244029 -136.365755971 1.40871354044e-96 -3.45726812034e-101 -5.0278760821e-100 5.03974849824e-100 -93.9335805511 8.40633906914e-95
0.91150097381 0.079283508704 10.1703544046 -1.03877031534 -10.1171668439 0 -10.9389110526 0 -10.8502636943 10.9389110526 -90 -1.03877031534 0.821744208718 1.32450266614 141.653394446 -128.346605554 3.37690233782e-08 -1.93210439259e-13 -1.88178485763e-12 1.89167770094e-12 -95.8622464591 1.74646818669e-06
0.91150097381 0.081577310105 10.3134553718 -1.03989898815 -10.2608867995 0 -11.091438826 0 -11.1491400095 11.091438826 -90 -1.03989898815 0.830552026464 1.3308807962 141.38739217 -128.61260783 1.66486955986e-08 -9.52559910798e-14 -9.27751535063e-13 9.32628872943e-13 -95.7879374467 8.61038143957e-07
0.91150097381 0.083936091405 10.5991237621 -1.04250445944 -10.5477222845 0 -11.3959093055 0 -11.455179123 11.3959093055 -90 -1.04250445944 0.848187020955 1.34397647824 140.869313748 -129.130686252 1.97098263137e-19 -1.16213482109e-24 -1.16109457463e-23 1.16689596137e-23 -95.6455489739 1.07671965833e-17
0.91150097381 0.086361350478 10.8915558097 -1.04585229563 -10.8412188908 0 -11.707558294 0 -11.7684306827 11.707558294 -90 -1.04585229563 0.866339403193 1.35808167838 140.36443861 -129.63556139 4.69692244268e-30 -2.85559565515e-35 -2.92426737025e-34 2.9381769719e-34 -95.5111581818 2.70970962837e-28
0.91150097381 0.088854616588 11.1907882545 -1.04993080021 -11.1414201199 0 -12.026427738 0 -12.0889364518 12.026427738 -90 -1.04993080021 0.885007618103 1.37318129311 139.873167152 -130.126832848 1.40856124807e-45 -8.83508439918e-51 -9.26579532961e-50 9.30782199301e-50 -95.3843004541 8.57984915729e-44
0.91150097381 0.091417451013 11.4968504597 -1.05472769164 -11.4483616191 0 -12.3525510307 0 -12.4167295633 12.3525510307 -90 -1.05472769164 0.904189411536 1.38925933919 139.395813566 -130.604186434 7.79853943401e-65 -5.0493461167e-70 -5.4188439906e-69 5.44231836229e-69 -95.2645347822 5.01429677525e-63
0.91150097381 0.094051447676 11.809763641 -1.0602300826 -11.7620704483 0 -12.6859522296 0 -12.7518337312 12.6859522296 -90 -1.0602300826 0.923881781259 1.40629893868 138.932609141 -131.067390859 1.15627344557e-81 -7.73209213172e-87 -8.48441932133e-86 8.51957884567e-86 -95.1514429322 7.84588211384e-80
0.91150097381 0.096758233794 12.129540057 -1.06642445658 -12.0825643059 0 -13.0266452315 0 -13.0942624185 13.0266452315 -90 -1.06642445658 0.944080925557 1.42428229703 138.483706321 -131.516293679 3.45602435458e-91 -2.38809880334e-96 -2.67728835879e-95 2.68791799049e-95 -95.0446285952 2.47420450331e-89
0.91150097381 0.099539470537 12.4561821613 -1.07329664227 -12.4098507139 0 -13.3746329035 0 -13.4440179631 13.3746329035 -90 -1.07329664227 0.964782189575 1.44319067426 138.049183359 -131.950816641 1.19981387026e-94 -8.58321820574e-100 -9.83217633255e-99 9.86957039469e-99 -94.94371653 9.08025594352e-93
0.91150097381 0.1023968537 12.7896817139 -1.08083178593 -12.7439261606 0 -13.72990617 0 -13.8010906576 13.72990617 -90 -1.08083178593 0.9859800094 1.46300434951 137.629049447 -132.370950553 6.28842823767e-96 -4.68253057686e-101 -5.49163733863e-100 5.51156564398e-100 -94.8483517069 5.06767258416e-94
0.91150097381 0.10533211437 12.9558615486 -1.08470831012 -12.9103739817 0 -13.9069308224 0 -14.1654577844 13.9069308224 -90 -1.08470831012 0.996556840635 1.47299614889 137.425298962 -132.574701038 2.78864412142e-96 -2.13201119235e-101 -2.53755425028e-100 2.54649490287e-100 -94.8026173165 2.34043021053e-94
0.9139022203 0.079283508704 10.1096558446 -1.03125922496 -10.0569202095 0 -10.8729291033 0 -10.7304207062 10.8729291033 -90 -1.03125922496 0.816008893807 1.31505365979 141.646291259 -128.353708741 4.27807868781e-08 -2.56970542491e-13 -2.50675189878e-12 2.51988869469e-12 -95.854733358 2.18122914313e-06
0.9139022203 0.081577310105 10.2519215586 -1.03239312502 -10.1997984007 0 -11.0245688965 0 -11.0261079996 11.0245688965 -90 -1.03239312502 0.824770495791 1.3214078096 141.380123167 -128.619876833 2.1091646336e-08 -1.26690792678e-13 -1.23587078125e-12 1.24234744223e-12 -95.7805844179 1.0753825963e-06
0.9139022203 0.083936091405 10.5359253379 -1.03500660318 -10.4849569185 0 -11.327269658 0 -11.3288915934 11.327269658 -90 -1.03500660318 0.842312739497 1.3344530647 140.861741767 -129.138258233 3.55747548638e-19 -2.22102643323e-24 -2.22308558208e-23 2.23415289168e-23 -95.6385039221 1.9109599839e-17
0.9139022203 0.086361350478 10.8266590587 -1.03835801274 -10.7767437625 0 -11.6371130343 0 -11.6388216715 11.6371130343 -90 -1.03835801274 0.860369271861 1.34850179041 140.35661106 -129.64338894 1.23600417951e-29 -8.00713720463e-35 -8.21593090819e-34 8.25485697393e-34 -95.5044065107 6.99827877008e-28
0.9139022203 0.088854616588 11.1241598124 -1.04243587118 -11.075202712 0 -11.9541413485 0 -11.9559406977 11.9541413485 -90 -1.04243587118 0.87893863651 1.3635391281 139.865131086 -130.134868914 5.90255405844e-45 -3.96520623534e-50 -4.16721125172e-49 4.18603371968e-49 -95.3778288395 3.52317850874e-43
0.9139022203 0.091417451013 11.4284573968 -1.04722810685 -11.3803697811 0 -12.2783884661 0 -12.2802826824 12.2783884661 -90 -1.04722810685 0.898018684907 1.37954934086 139.387615296 -130.612384704 3.83807470665e-64 -2.66499678732e-69 -2.86598594506e-68 2.87834979572e-68 -95.2583310269 2.41734281608e-62
0.9139022203 0.094051447676 11.7395735518 -1.05272203841 -11.6922724921 0 -12.6098790198 0 -12.6118724069 12.6098790198 -90 -1.05272203841 0.917606527649 1.39651579898 138.924293873 -131.075706127 3.3690350175e-81 -2.40407500359e-86 -2.64301226728e-85 2.65392344442e-85 -95.145495834 2.24281013228e-79
0.9139022203 0.096758233794 12.0575211579 -1.05890435175 -12.0109291083 0 -12.9486275917 0 -12.9507246051 12.9486275917 -90 -1.05890435175 0.937698483414 1.41442095861 138.475317815 -131.524682185 5.07311025962e-91 -3.69547269215e-96 -4.14928165796e-95 4.16570565647e-95 -95.0389278277 3.5764828462e-89
0.9139022203 0.099539470537 12.3823033955 -1.06576107491 -12.3363478264 0 -13.2946378521 0 -13.2968431024 13.2946378521 -90 -1.06576107491 0.958290025677 1.43324633366 138.040763623 -131.959236377 1.34422577198e-94 -1.00589495455e-99 -1.15366500924e-98 1.15804203883e-98 -94.9382525351 1.00398305802e-92
0.9139022203 0.1023968537 12.7139128645 -1.07327755099 -12.6685259267 0 -13.6479016539 0 -13.650219911 13.6479016539 -90 -1.07327755099 0.979375727192 1.4529724611 137.62063847 -132.37936153 6.17053574802e-96 -4.77591830434e-101 -5.601607439e-100 5.62193132354e-100 -94.8431155993 4.90192952128e-94
0.9139022203 0.10533211437 12.9734618066 -1.07768446852 -12.9286197051 0 -13.9239750351 0 -14.0108342792 13.9239750351 -90 -1.07768446852 0.995355330001 1.46702445075 137.274966626 -132.725033374 1.90703783225e-96 -1.53742550834e-101 -1.84203336542e-100 1.8484386921e-100 -94.765376623 1.60412261214e-94
0.9139022203 0.10834701967 13.3248064687 -1.08328726002 -13.2806951672 0 -14.297456759 0 -14.3786517049 14.297456759 -90 -1.08328726002 1.01676159183 1.48571203557 136.815827259 -133.184172741 1.51015885594e-96 -1.31481723628e-101 -1.6121079417e-100 1.61746122488e-100 -94.6637475174 1.34087546867e-94
0.9139022203 0.11144337341 13.4958698233 -1.08776267246 -13.45196174 0 -14.4796666519 0 -14.7536228948 14.4796666519 -90 -1.08776267246 1.02770491189 1.49646417181 136.626180521 -133.373819479 1.51022248351e-96 -1.33758808064e-101 -1.65414608721e-100 1.65954532827e-100 -94.6230356862 1.37534830633e-94
0.91653186296 0.079283508704 9.98889174668 -1.0162433447 -9.93706222615 0 -10.7416595357 0 -10.6011977228 10.7416595357 -90 -1.0162433447 0.80459730951 1.29619728876 141.629971647 -128.370028353 6.53189668092e-08 -4.23154948649e-13 -4.13920034475e-12 4.1607739592e-12 -95.8391714619 3.25028445636e-06
0.91653186296 0.081577310105 10.1294950443 -1.01738974809 -10.0782647511 0 -10.8915320084 0 -10.89344403 10.8915320084 -90 -1.01738974809 0.813267257359 1.30250575939 141.363514956 -128.636485044 3.22033475194e-08 -2.08622495603e-13 -2.04069527836e-12 2.05133143256e-12 -95.7653632194 1.60244481808e-06
0.91653186296 0.083936091405 10.4101856511 -1.02002322804 -10.360084953 0 -11.1907104899 0 -11.1927146739 11.1907104899 -90 -1.02002322804 0.830625536929 1.31545460267 140.844612917 -129.155387083 9.31511292128e-19 -6.27272728979e-24 -6.29575749499e-23 6.32692927727e-23 -95.6239378585 4.88189368567e-17
0.91653186296 0.086361350478 10.6975389475 -1.02338566518 -10.6484681034 0 -11.4969600161 0 -11.4990603945 11.4969600161 -90 -1.02338566518 0.848491912701 1.32939470547 140.339057015 -129.660942985 5.38572430736e-29 -3.76320226453e-34 -3.87184125342e-33 3.89008634208e-33 -95.4904637828 2.9745140671e-27
0.91653186296 0.088854616588 10.9915927182 -1.02746600011 -10.9434585251 0 -11.8103236461 0 -11.812524388 11.8103236461 -90 -1.02746600011 0.866865121008 1.34431169398 139.847246129 -130.152753871 4.64613464964e-44 -3.36644910276e-49 -3.54747455242e-48 3.56341206806e-48 -95.3644803291 2.7046978225e-42
0.91653186296 0.091417451013 11.2923776172 -1.03225257648 -11.2450929511 0 -12.1308361711 0 -12.1331415866 12.1308361711 -90 -1.03225257648 0.885743219939 1.36019031951 139.36949179 -130.63050821 3.79232768111e-63 -2.84073769027e-68 -3.06306346654e-67 3.07620801416e-67 -95.2455500028 2.329321673e-61
0.91653186296 0.094051447676 11.5999164187 -1.03773312073 -11.5533998123 0 -12.4585233536 0 -12.4609378962 12.4585233536 -90 -1.03773312073 0.905123541247 1.37701444482 138.906021557 -131.093978443 1.80413425729e-80 -1.38993609851e-85 -1.53202931709e-84 1.53832150957e-84 -95.133257683 1.17122817159e-78
0.91653186296 0.096758233794 11.9142232299 -1.04389471981 -11.8683984834 0 -12.7934011234 0 -12.7959293931 12.7934011234 -90 -1.04389471981 0.925002639979 1.39476702387 138.456983152 -131.543016848 1.02383632936e-90 -8.05496706684e-96 -9.06647291864e-95 9.10218418933e-95 -95.0272098107 7.04156826427e-89
0.91653186296 0.099539470537 12.2353026661 -1.05072379691 -12.1900984901 0 -13.135474732 0 -13.138121478 13.135474732 -90 -1.05072379691 0.945376241931 1.41343007504 138.022449215 -131.977550785 1.68372616487e-94 -1.35975478786e-99 -1.56301758106e-98 1.56892114479e-98 -94.9270335677 1.22716792425e-92
0.91653186296 0.1023968537 12.5631489852 -1.0582060856 -12.5184986732 0 -13.4847378621 0 -13.487507986 13.4847378621 -90 -1.0582060856 0.966239188915 1.43298464801 137.60242255 -132.39757745 6.33779079364e-96 -5.29542350394e-101 -6.21906522729e-100 6.24157022241e-100 -94.8323760549 4.89840358544e-94
0.91653186296 0.10533211437 12.897745188 -1.0663266027 -12.8535863163 0 -13.8411716985 0 -13.8440702523 13.8411716985 -90 -1.0663266027 0.987585382253 1.45341078457 137.196841708 -132.803158292 1.51362477469e-96 -1.32464805636e-101 -1.59702674081e-100 1.60251141527e-100 -94.7429034747 1.25920323044e-94
0.91653186296 0.10834701967 13.2390620707 -1.07506961972 -13.1953362244 0 -14.2047439483 0 -14.2077761422 14.2047439483 -90 -1.07506961972 1.00940772394 1.47468747334 136.805586807 -133.194413193 1.5138824109e-96 -1.37190269779e-101 -1.68415324316e-100 1.68973217088e-100 -94.6583003244 1.3269502363e-94
0.91653186296 0.11144337341 13.4090823206 -1.07953256476 -13.3655563559 0 -14.3858451135 0 -14.5785790262 14.3858451135 -90 -1.07953256476 1.02028875759 1.48538876076 136.616030163 -133.383969837 1.51394803286e-96 -1.39569254615e-101 -1.72807943809e-100 1.73370647596e-100 -94.6177096732 1.36107816641e-94
0.91940843578 0.079283508704 9.859005728 -0.999941090328 -9.80816542457 0 -10.6004876446 0 -10.4622091014 10.6004876446 -90 -0.999941090328 0.792322220007 1.27579652168 141.607684142 -128.392315858 1.01327443021e-07 -7.06097196954e-13 -6.92891256135e-12 6.96479746982e-12 -95.8211185019 4.91022489336e-06
0.91940843578 0.081577310105 9.99781977105 -1.00110530678 -9.947563833 0 -10.7484580199 0 -10.7507516326 10.7484580199 -90 -1.00110530678 0.800894186871 1.28206007552 141.341005947 -128.658994053 4.99561309764e-08 -3.48117775417e-13 -3.41607024831e-12 3.43376211079e-12 -95.7477239679 2.42082332864e-06
0.91940843578 0.083936091405 10.2749442665 -1.00376876299 -10.2257897196 0 -11.043845479 0 -11.0462407943 11.043845479 -90 -1.00376876299 0.818055759336 1.2949133582 140.821721033 -129.178278967 5.80390404661e-18 -4.24590215415e-23 -4.27694304361e-22 4.29796682453e-22 -95.6070934978 2.94974798638e-16
0.91940843578 0.086361350478 10.5586587615 -1.00715123083 -10.5105079653 0 -11.3462266831 0 -11.3487278999 11.3462266831 -90 -1.00715123083 0.835718717785 1.30874441636 140.315887833 -129.684112167 2.50373018169e-28 -1.88186733776e-33 -1.9423066705e-32 1.95140193083e-32 -95.4743743894 1.34587611442e-26
0.91940843578 0.088854616588 10.8490017724 -1.01124209698 -10.8017634579 0 -11.6556454557 0 -11.6582569062 11.6556454557 -90 -1.01124209698 0.853881997836 1.32353938956 139.823902906 -130.176097094 4.09028073847e-43 -3.18795048451e-48 -3.3698427294e-47 3.38488853319e-47 -95.3491091527 2.31715471309e-41
0.91940843578 0.091417451013 11.146004858 -1.01603014361 -11.0995936829 0 -11.972137555 0 -11.9748637081 11.972137555 -90 -1.01603014361 0.872543872163 1.33928354734 139.346074694 -130.653925306 4.43590897281e-62 -3.57493146592e-67 -3.8664957798e-66 3.88298738585e-66 -95.2308631401 2.65121696004e-60
0.91940843578 0.094051447676 11.449691886 -1.02150352849 -11.4040280246 0 -12.2957299277 0 -12.2985753909 12.2957299277 -90 -1.02150352849 0.891701903083 1.35596127641 138.882626943 -131.117373057 1.15409815294e-79 -9.57369769983e-85 -1.05838902276e-83 1.06271016766e-83 -95.1192237784 7.28994789076e-78
0.91940843578 0.096758233794 11.7600782619 -1.02764976335 -11.7150870277 0 -12.6264399206 0 -12.6294094428 12.6264399206 -90 -1.02764976335 0.911352892905 1.37355606143 138.433702917 -131.566297083 2.29182231984e-90 -1.94263107268e-95 -2.19281634484e-94 2.20140449271e-94 -95.0137997839 1.53418567459e-88
0.91940843578 0.099539470537 12.0771701203 -1.03445569063 -12.0327816191 0 -12.9642744512 0 -12.9673729241 12.9642744512 -90 -1.03445569063 0.931492832178 1.39205045968 137.999370232 -132.000629768 2.18418710305e-94 -1.89907268766e-99 -2.18863364817e-98 2.19685741143e-98 -94.9142203675 1.55002665363e-92
0.91940843578 0.1023968537 12.4009634761 -1.04190745891 -12.3571122881 0 -13.3092291339 0 -13.3124615949 13.3092291339 -90 -1.04190745891 0.952116845798 1.41142606944 137.579626189 -132.420373811 6.93684316936e-96 -6.23749865609e-101 -7.34306559815e-100 7.36951091329e-100 -94.8201344382 5.22037004735e-94
0.91940843578 0.10533211437 12.7314433418 -1.04999049722 -12.68806823 0 -13.6612873673 0 -13.664658997 13.6612873673 -90 -1.04999049722 0.973219137375 1.43166349258 137.174403453 -132.825596547 1.52128925738e-96 -1.4331928635e-101 -1.73218965818e-100 1.73810908218e-100 -94.7312098099 1.23315385406e-94
0.91940843578 0.10834701967 13.068582798 -1.05868948828 -13.0256264417 0 -14.020419373 0 -14.0239355016 14.020419373 -90 -1.05868948828 0.994792931301 1.45274229112 136.783575962 -133.216424038 1.52156124889e-96 -1.48445891193e-101 -1.82673493112e-100 1.83275705803e-100 -94.6471324175 1.2995548215e-94
0.91940843578 0.11144337341 13.2365275359 -1.06312916896 -13.1937642768 0 -14.1993145298 0 -14.3902473023 14.1993145298 -90 -1.06312916896 1.00555025299 1.46334378551 136.594246294 -133.405753706 1.52163096872e-96 -1.51026717992e-101 -1.87439948256e-100 1.8804740162e-100 -94.6067959105 1.33300398903e-94
0.9225518613 0.079283508704 9.71966062274 -0.982269254992 -9.66989897018 0 -10.4490505232 0 -10.3130950836 10.4490505232 -90 -0.982269254992 0.779151553052 1.25376639335 141.577837156 -128.422162844 1.5928827041e-07 -1.19072161116e-12 -1.17280200628e-11 1.17883110506e-11 -95.8001322738 7.49978888496e-06
0.9225518613 0.081577310105 9.8565536804 -0.98345765174 -9.80735974178 0 -10.5949788027 0 -10.5976608364 10.5949788027 -90 -0.98345765174 0.787619060932 1.25998664608 141.311031771 -128.688968229 7.85317922118e-08 -5.87045749882e-13 -5.78211083759e-12 5.81183530707e-12 -95.7272390336 3.69752186295e-06
0.9225518613 0.083936091405 10.1298493363 -0.986163126448 -10.0817251846 0 -10.886296061 0 -10.8890895008 10.886296061 -90 -0.986163126448 0.804570876359 1.27274686859 140.791556713 -129.208443287 1.94040442501e-17 -1.507783924e-22 -1.52377460859e-21 1.53121626154e-21 -95.5875712314 9.6153942817e-16
0.9225518613 0.086361350478 10.4096565889 -0.989576655852 -10.3625069296 0 -11.1845237609 0 -11.1874329759 11.1845237609 -90 -0.989576655852 0.822016831309 1.28647003897 140.285651341 -129.714348659 1.23509319198e-27 -9.9582909808e-33 -1.03158497537e-31 1.03638040039e-31 -95.455765325 6.44678056564e-26
0.9225518613 0.088854616588 10.6960147227 -0.993688087282 -10.6497504495 0 -11.4897065147 0 -11.4927360036 11.4897065147 -90 -0.993688087282 0.839956065218 1.3011428314 139.793708238 -130.206291762 3.99675985039e-42 -3.34144273321e-47 -3.54486086949e-46 3.56057454438e-46 -95.331367513 2.1981790822e-40
0.9225518613 0.091417451013 10.9889562482 -0.998486656707 -10.9434940129 0 -11.8018810842 0 -11.8050354783 11.8018810842 -90 -0.998486656707 0.858387071348 1.31675105703 139.316031076 -130.683968924 6.1303002583e-61 -5.30043087144e-66 -5.75300703956e-65 5.77737274719e-65 -95.2139464824 3.5568021999e-59
0.9225518613 0.094051447676 11.2885061846 -1.00396096924 -11.243768001 0 -12.1210756511 0 -12.1243597155 12.1210756511 -90 -1.00396096924 0.877307650108 1.33327965194 138.852838124 -131.147161876 8.90441564715e-79 -7.93106216212e-84 -8.79817249297e-83 8.83384725569e-83 -95.1030926687 5.4595804926e-77
0.9225518613 0.096758233794 11.5946813056 -1.01009897821 -11.5505941845 0 -12.4473090447 0 -12.4507276805 12.4473090447 -90 -1.01009897821 0.896714860205 1.35071265912 138.404266544 -131.595733456 5.76502177558e-90 -5.25123614218e-95 -5.94709999968e-94 5.97023900627e-94 -94.998417499 3.74705891337e-88
0.9225518613 0.099539470537 11.907489348 -1.01688796312 -11.863984962 0 -12.7805899298 0 -12.7841481749 12.7805899298 -90 -1.01688796312 0.916604967745 1.36903320454 137.970377332 -132.029622668 2.95190916653e-94 -2.75633864816e-99 -3.18619090138e-98 3.19809120773e-98 -94.899552625 2.03489119131e-92
0.9225518613 0.1023968537 12.2269281814 -1.02431450638 -12.1839425571 0 -13.1209159504 0 -13.1246189819 13.1209159504 -90 -1.02431450638 0.936973393247 1.38822346714 137.551160754 -132.448839246 7.67482437166e-96 -7.4065571807e-101 -8.74301286567e-100 8.77432981408e-100 -94.806149154 5.61005807658e-94
0.9225518613 0.10533211437 12.5529849432 -1.03236446943 -12.510458179 0 -13.468272836 0 -13.4721259664 13.468272836 -90 -1.03236446943 0.957814656952 1.40826464331 137.146542131 -132.853457869 1.48209748046e-96 -1.49771226948e-101 -1.81523419634e-100 1.82140289785e-100 -94.7178768808 1.16847082969e-94
0.9225518613 0.10834701967 12.8856351279 -1.04102296772 -12.8435111363 0 -13.8226334581 0 -13.8266421416 13.8226334581 -90 -1.04102296772 0.979122321863 1.42913690537 136.756387866 -133.243612134 1.48237648964e-96 -1.55145610218e-101 -1.91436241622e-100 1.92063935163e-100 -94.6344235295 1.23144482896e-94
0.9225518613 0.11144337341 13.1381272217 -1.04570526155 -13.0964424002 0 -14.0910931378 0 -14.1881266813 14.0910931378 -90 -1.04570526155 0.994650737659 1.44320851875 136.433911817 -133.566088183 1.46868995938e-96 -1.6025136304e-101 -2.00737454411e-100 2.01376141771e-100 -94.5655076775 1.26774459828e-94
0.9225518613 0.11462301686 13.3000384229 -1.04619847657 -13.2588269013 0 -14.2626268068 0 -14.5565239033 14.2626268068 -90 -1.04619847657 1.00379990553 1.4498777544 136.184836492 -133.815163508 1.44301919901e-96 -1.64729913795e-101 -2.08767787507e-100 2.09416686407e-100 -94.5116220782 1.27628570476e-94
0.92598354977 0.079283508704 9.57055003356 -0.963140934129 -9.52196317411 0 -10.2870193489 0 -10.1535292928 10.2870193489 -90 -0.963140934129 0.76505617479 1.23002099053 141.53844638 -128.46155362 2.53058603443e-07 -2.02347720127e-12 -2.00170545452e-11 2.01190693605e-11 -95.7756845733 1.15480457158e-05
0.92598354977 0.081577310105 9.70538588257 -0.964361083635 -9.65734810449 0 -10.4307607298 0 -10.4338358613 10.4307607298 -90 -0.964361083635 0.773412625282 1.23620056498 141.271642746 -128.728357254 1.24762141167e-07 -9.97608240979e-13 -9.86874404243e-12 9.91903905956e-12 -95.7033976247 5.6933804671e-06
0.92598354977 0.083936091405 9.97458097463 -0.967122987398 -9.92757761025 0 -10.7177189994 0 -10.720915349 10.7177189994 -90 -0.967122987398 0.790141389136 1.24887218656 140.752240293 -129.247759707 1.29612421365e-16 -1.08678829034e-21 -1.10371078905e-20 1.10904851752e-20 -95.564893799 6.19533461715e-15
0.92598354977 0.086361350478 10.2502032788 -0.970580953918 -10.2041416441 0 -11.0114981386 0 -11.0148202478 11.0114981386 -90 -0.970580953918 0.807356494505 1.26249052487 140.246540925 -129.753459075 6.4002688645e-27 -5.51947815729e-32 -5.74212275715e-31 5.76858915485e-31 -95.4341912584 3.23584144053e-25
0.92598354977 0.088854616588 10.5322928822 -0.974725293599 -10.4870862804 0 -11.3121435671 0 -11.3155961038 11.3121435671 -90 -0.974725293599 0.825057286698 1.27704279938 139.754930893 -130.245069107 4.29451348807e-41 -3.84019834118e-46 -4.09111870953e-45 4.10910254257e-45 -95.3108404123 2.2873451557e-39
0.92598354977 0.091417451013 10.8208832912 -0.979545699811 -10.7764505993 0 -11.6196930824 0 -11.6232808427 11.6196930824 -90 -0.979545699811 0.84324248313 1.29251537634 139.277706747 -130.722293253 9.97415280834e-60 -9.22561912199e-65 -1.00544964923e-63 1.00967331779e-63 -95.1944137833 5.60372006608e-58
0.92598354977 0.094051447676 11.1160007318 -0.985031229935 -11.0722660188 0 -11.9341761463 0 -11.9379040559 11.9341761463 -90 -0.985031229935 0.861910127474 1.30889375769 138.815078948 -131.184921052 8.37338222897e-78 -7.98456747584e-83 -8.89296646944e-82 8.92873936012e-82 -95.0845052957 4.97074704784e-76
0.92598354977 0.096758233794 11.4176634132 -0.991170285422 -11.3745555892 0 -12.2556131309 0 -12.2594862459 12.2556131309 -90 -0.991170285422 0.881057541709 1.32616256423 138.367176291 -131.632823709 1.6568577693e-89 -1.61747890488e-94 -1.83884489381e-93 1.84594501308e-93 -94.9807295486 1.04283542801e-87
0.92598354977 0.099539470537 11.7258807552 -0.997950591048 -11.6833332483 0 -12.5840145245 0 -12.5880380321 12.5840145245 -90 -0.997950591048 0.900681276175 1.34430551323 137.93405097 -132.06594903 4.1899587852e-94 -4.19098179576e-99 -4.86157367571e-98 4.87960487583e-98 -94.8827210779 2.79849625005e-92
0.92598354977 0.1023968537 12.0406525769 -1.00535917341 -11.9986030366 0 -12.9193800942 0 -12.923559314 12.9193800942 -90 -1.00535917341 0.920777057581 1.36330539022 137.515684143 -132.484315857 8.63490028044e-96 -8.92190828804e-101 -1.05651010671e-99 1.06027067001e-99 -94.7901336157 6.11471503912e-94
0.92598354977 0.10533211437 12.3619682508 -1.01338233888 -12.3203582764 0 -13.2616980118 0 -13.2660383915 13.2616980118 -90 -1.01338233888 0.941339735335 1.38314401538 137.111991853 -132.888008147 1.42430038961e-96 -1.54241728879e-101 -1.8755496077e-100 1.88188173388e-100 -94.7026393501 1.08877001931e-94
0.92598354977 0.10834701967 12.6898058131 -1.02200565076 -12.6485807045 0 -13.6109439301 0 -13.6154510514 13.6109439301 -90 -1.02200565076 0.962363225639 1.40380220407 136.722831172 -133.277168828 1.42458410749e-96 -1.59797846462e-101 -1.97802936346e-100 1.98447411719e-100 -94.6199281922 1.1475063799e-94
0.92598354977 0.11144337341 13.0241310447 -1.03121390613 -12.983239575 0 -13.9670800294 0 -13.9717595993 13.9670800294 -90 -1.03121390613 0.983840454475 1.4252597227 136.348006435 -133.651993565 1.42468231468e-96 -1.65595929241e-101 -2.08523144506e-100 2.09179688009e-100 -94.5417070483 1.20884612638e-94
0.92598354977 0.11462301686 13.274785811 -1.03610158447 -13.2342870773 0 -14.2335463061 0 -14.3349118653 14.2335463061 -90 -1.03610158447 0.999259228808 1.43946007632 136.037473338 -133.962526662 1.4188546884e-96 -1.71939837435e-101 -2.19678206789e-100 2.20350105829e-100 -94.4767963928 1.25033252756e-94
0.92598354977 0.11788782946 13.6080315879 -1.04183668046 -13.5680888545 0 -14.5875059481 0 -14.7048401602 14.5875059481 -90 -1.04183668046 1.0194170936 1.45761912946 135.624516047 -134.375483953 1.40793299224e-96 -1.81682368184e-101 -2.36633437619e-100 2.37329914553e-100 -94.3913200827 1.30380765908e-94
0.92598354977 0.12123972958 13.9589735377 -1.05267037743 -13.9192228966 0 -14.9612758888 0 -15.0814601996 14.9612758888 -90 -1.05267037743 1.04205299213 1.48121812512 135.291727409 -134.708272591 1.40793557906e-96 -1.88458703897e-101 -2.49219035372e-100 2.49930618457e-100 -94.3252879521 1.37192250331e-94
0.92598354977 0.12468067527 14.1336663386 -1.05814355058 -14.0940007236 0 -15.1473255445 0 -15.4646699891 15.1473255445 -90 -1.05814355058 1.05332482091 1.49303749182 135.130758479 -134.869241521 1.40793605787e-96 -1.91875703535e-101 -2.55569889642e-100 2.56289155736e-100 -94.293573785 1.4062502246e-94
0.92972650512 0.079283508704 9.41140586476 -0.942465235339 -9.36409703579 0 -10.1141076306 0 -9.98322687223 10.1141076306 -90 -0.942465235339 0.750010594788 1.20447373612 141.487029717 -128.512970283 4.05109337692e-07 -3.4545991001e-12 -3.43488969372e-11 3.4522182046e-11 -95.7471423344 1.78707655698e-05
0.92972650512 0.081577310105 9.54404429257 -0.943726099851 -9.4972637237 0 -10.2555130323 0 -10.2589834708 10.2555130323 -90 -0.943726099851 0.75824930862 1.21061645196 141.22040146 -128.77959854 1.99725706825e-07 -1.7031753725e-12 -1.69345830426e-11 1.70200155114e-11 -95.6755876427 8.8105875458e-06