TITLE = "Electromagnetic Field"
VARIABLES = X Y E ER EI EvR EvI EvR' EvI' Ev EvPhase EpR EpI Ep EpPhase EpToEvPhaseShift elConductivity Jr Ji J Jphase QJ
ZONE N=292, E=256, F=FEPOINT, ET=QUADRILATERAL
0.88339669773 0.043198621035 6.34680452001 -1.25623022879 -6.22122202333 0 -6.8762372908 0 -6.87526477488 6.8762372908 -90 -1.25623022879 0.655015267471 1.41674712641 152.462528378 -117.537471622 97.1856750986 -0.000119777263903 -0.000592813460812 0.000604794420959 -101.417935726 1955.82350486
0.8833996203 0.044454920341 6.53476142196 -1.26304924932 -6.41151864132 0 -7.07877396374 0 -7.07195238257 7.07877396374 -90 -1.26304924932 0.667255322425 1.42847421575 152.153547443 -117.846452557 90.2557209251 -0.000111728728667 -0.000567008197809 0.000577913056306 -101.146323203 1925.43080308
0.88340264006 0.045753000035 6.72294990548 -1.26745366587 -6.60237407548 0 -7.28133342886 0 -7.27489296374 7.28133342886 -90 -1.26745366587 0.678959353381 1.43786065697 151.823113105 -118.176886895 83.4030351204 -0.000107032863393 -0.000557365519207 0.000567551147166 -100.868836295 1882.99102368
0.88340575945 0.047093902503 6.91718587633 -1.27016029961 -6.79954761251 0 -7.49025166734 0 -7.48421246207 7.49025166734 -90 -1.27016029961 0.69070405482 1.44582211737 151.463439712 -118.536560288 76.4208692524 -0.000101506147114 -0.000543164087757 0.000552569159116 -100.583009363 1826.23762058
0.88340898094 0.048478693238 7.11759924288 -1.2711507418 -7.00314616848 0 -7.70565404842 0 -7.70003686422 7.70565404842 -90 -1.2711507418 0.702507879935 1.45236634635 151.072952837 -118.927047163 69.2573108543 -9.50582159326e-05 -0.000523422934309 0.000531986395821 -100.289947433 1752.02352908
0.88341230705 0.04990846132 7.32431967954 -1.27043708851 -7.21327089722 0 -7.92766574567 0 -7.92249196924 7.92766574567 -90 -1.27043708851 0.714394848447 1.45753268517 150.650328896 -119.349671104 61.846700091 -8.75765373838e-05 -0.000496895010534 0.000504555313897 -99.9909341329 1656.34375806
0.88341574039 0.051384319903 7.42758794674 -1.26967675087 -7.31826370493 0 -8.038531398 0 -8.1517031346 8.038531398 -90 -1.26967675087 0.720267693076 1.45974812944 150.434438245 -119.565561755 58.1313726505 -8.36295494036e-05 -0.000482030639404 0.000489231477787 -99.8425152357 1603.52667149
0.88416504674 0.043415549428 6.35036968766 -1.25405824318 -6.22529638092 0 -6.87972476376 0 -6.88329367917 6.87972476376 -90 -1.25405824318 0.654428382834 1.41455007391 152.442898503 -117.557101497 96.8247268396 -0.000119266946165 -0.000591699152929 0.000603601240705 -101.391458846 1950.73550623
0.88416799902 0.044671285282 6.53787184037 -1.26075659461 -6.41513922185 0 -7.0817606318 0 -7.07911517671 7.0817606318 -90 -1.26075659461 0.666621409949 1.42615115242 152.133004782 -117.866995218 89.8943714013 -0.000111324590112 -0.000566300485661 0.000577140669481 -101.120479321 1919.53585645
0.88417104928 0.045968700127 6.72565151905 -1.26506624328 -6.6055821148 0 -7.28387235516 0 -7.28114868049 7.28387235516 -90 -1.26506624328 0.678290240354 1.43544043833 151.801617842 -118.198382158 83.0392777274 -0.000106593784884 -0.00055639224728 0.000566512630814 -100.843709942 1876.27240094
0.88417419998 0.047308831805 6.91945922936 -1.26768224242 -6.80232202733 0 -7.49232208719 0 -7.48951898108 7.49232208719 -90 -1.26768224242 0.690000059853 1.4433090553 151.440953065 -118.559046935 76.0533408333 -0.000101031436821 -0.00054189615488 0.000551235685261 -100.558617921 1818.63513885
0.88417745359 0.048692741123 7.11942437148 -1.26858793564 -7.00546518958 0 -7.7072346285 0 -7.70435090624 7.7072346285 -90 -1.26858793564 0.701769438917 1.44976638085 151.049457918 -118.950542082 68.8841207715 -9.45467371873e-05 -0.000521824208302 0.000530322079964 -100.266316098 1743.46010235
0.88418081268 0.050121512325 7.32567604033 -1.26779744177 -7.21511199714 0 -7.92873458311 0 -7.92576908951 7.92873458311 -90 -1.26779744177 0.713622585967 1.45485363254 150.62583599 -119.37416401 61.4648600305 -8.70258371411e-05 -0.000494916281359 0.000502511095749 -99.9680971222 1646.70709796
0.88418427985 0.051596253583 7.42871181215 -1.26700142664 -7.31986735806 0 -8.03934650415 0 -8.15389772442 8.03934650415 -90 -1.26700142664 0.719479146089 1.45703234655 150.40945342 -119.59054658 57.7442509556 -8.30585853523e-05 -0.000479850371508 0.000486985773794 -99.8200739295 1593.32698066
0.88493712706 0.043618798356 6.35643342821 -1.24965907149 -6.2323656503 0 -6.88555196903 0 -6.88894002168 6.88555196903 -90 -1.24965907149 0.653186318729 1.41007573113 152.404937544 -117.595062456 96.1352564621 -0.000118220134941 -0.000589252248502 0.000600995961025 -101.339984642 1940.5358365
0.88494006888 0.044874116715 6.54298903432 -1.25612924392 -6.42126140844 0 -7.08654743353 0 -7.08392353616 7.08654743353 -90 -1.25612924392 0.665286025091 1.42143660523 152.093399862 -117.906600138 89.2057257891 -0.000110540833324 -0.000564921541128 0.000575636634369 -101.070356348 1907.8061965
0.88494310814 0.046171017577 6.72996644851 -1.26026053262 -6.61089361956 0 -7.28778076564 0 -7.28507924102 7.28778076564 -90 -1.26026053262 0.676887146084 1.43054250399 151.76018741 -118.23981259 82.3452354656 -0.000105743014441 -0.000554499002713 0.000564493296627 -100.794996634 1862.96801801
0.88494624728 0.047510534365 6.92293346474 -1.26270598031 -6.80678134542 0 -7.49531115072 0 -7.49253080923 7.49531115072 -90 -1.26270598031 0.688529805303 1.43823586125 151.397618126 -118.602381874 75.3511846106 -0.000100112203108 -0.00053943176982 0.000548644721423 -100.511344399 1803.64003223
0.88494948876 0.048893723323 7.12201847575 -1.26345232335 -7.0090294652 0 -7.70926226521 0 -7.70640194375 7.70926226521 -90 -1.26345232335 0.700232800006 1.44452920473 151.004182132 -118.995817868 68.1700468274 -9.35566410992e-05 -0.000518717647539 0.000527088905277 -100.220527931 1726.62414505
0.88495283512 0.050321663995 7.32734943673 -1.2625175952 -7.21773688932 0 -7.92975758472 0 -7.92681615128 7.92975758472 -90 -1.2625175952 0.712020695396 1.4494673769 150.578636215 -119.421363785 60.732894708 -8.59598708108e-05 -0.000491070675396 0.000498539102327 -99.923857654 1627.81106895
0.88495628894 0.051795459697 7.42992845559 -1.26165468325 -7.32202546063 0 -8.03987128272 0 -8.1538964959 8.03987128272 -90 -1.26165468325 0.717845822088 1.45157690463 150.361304374 -119.638695626 57.0014530878 -8.19533572038e-05 -0.000475612508003 0.000482621634452 -99.7766051975 1573.34920185
0.8857126957 0.043808303839 6.36031580609 -1.24513493402 -6.23723026192 0 -6.88902953623 0 -6.89222859244 6.88902953623 -90 -1.24513493402 0.651799274315 1.40542405033 152.369609106 -117.630390894 95.511257204 -0.000117237832304 -0.000586951119414 0.000598546761238 -101.291392219 1930.28732956
0.88571558935 0.045063351973 6.54594322431 -1.25140119437 -6.42519447647 0 -7.08900587594 0 -7.08640234863 7.08900587594 -90 -1.25140119437 0.663811399462 1.41656852688 152.056598813 -117.943401187 88.581782221 -0.000109803042549 -0.000563614237761 0.000574212150495 -101.023110478 1896.16563876
0.88571857867 0.046359891044 6.7321445477 -1.25537597327 -6.61404017258 0 -7.28939020028 0 -7.28670961925 7.28939020028 -90 -1.25537597327 0.675350027701 1.42551238068 151.721715773 -118.278284227 81.7148255771 -0.000104943705496 -0.000552709179176 0.000562585578326 -100.749123282 1849.89218985
0.88572166602 0.047698950179 6.92429804503 -1.25767183037 -6.80910123465 0 -7.49603179758 0 -7.49327299465 7.49603179758 -90 -1.25767183037 0.686930562929 1.43305085274 151.357394042 -118.642605958 74.711613503 -9.9249821531e-05 -0.000537105337703 0.000546200121293 -100.466863719 1789.02194625
0.88572485382 0.049081581192 7.12253112711 -1.25827870104 -7.0104812354 0 -7.70905325457 0 -7.70621508843 7.70905325457 -90 -1.25827870104 0.698572019164 1.4391994382 150.962164431 -119.037835569 67.5174976249 -9.26286060331e-05 -0.000515786268896 0.000524039464791 -100.177475406 1710.32277571
0.88572814457 0.050508859047 7.32697065578 -1.25721829273 -7.21827766801 0 -7.92857695323 0 -7.92565831311 7.92857695323 -90 -1.25721829273 0.710299285225 1.44400637167 150.534834722 -119.465165278 60.0613908622 -8.49609897006e-05 -0.00048744053845 0.000494791198736 -99.8822861677 1609.61804175
0.88573154079 0.051981882342 7.42910731667 -1.25629725952 -7.32211350297 0 -8.03820868096 0 -8.15172463958 8.03820868096 -90 -1.25629725952 0.716095177989 1.44605511716 150.316621002 -119.683378998 56.3186288923 -8.09176851426e-05 -0.000471610922766 0.000478502415342 -99.7357689722 1554.16086499
0.88649150694 0.043984005836 6.36201623213 -1.24049545657 -6.2398885065 0 -6.89015778231 0 -6.89318488489 6.89015778231 -90 -1.24049545657 0.650269275811 1.40060437361 152.337035136 -117.662964864 94.9538338498 -0.000116354711869 -0.000584968211003 0.000596429456436 -101.245714705 1920.04016752
0.88649431721 0.045238932288 6.54675760739 -1.24657974684 -6.4269614532 0 -7.08916151488 0 -7.0865771877 7.08916151488 -90 -1.24657974684 0.662200061679 1.41155441122 152.022667005 -117.977332995 88.0225452779 -0.000109112741982 -0.000562389980795 0.000572878629944 -100.978715257 1884.65616708
0.88649722021 0.046535263049 6.73220899549 -1.25041952304 -6.61504485174 0 -7.28872628188 0 -7.28606545921 7.28872628188 -90 -1.25041952304 0.673681430148 1.4203572452 151.686266339 -118.313733661 81.1481235002 -0.00010419737468 -0.00055103507592 0.000560801771553 -100.706065082 1837.08813106
0.88650021822 0.047874023073 6.92357615988 -1.25258630987 -6.80930486457 0 -7.49450970562 0 -7.4917712391 7.49450970562 -90 -1.25258630987 0.685204841046 1.427760779 151.320342417 -118.679657583 74.1347783175 -9.84457959712e-05 -0.000534930151313 0.000543915163145 -100.425151857 1774.82553996
0.88650331359 0.049256259865 7.12098554173 -1.25307306699 -7.00984378346 0 -7.70663331535 0 -7.70381608425 7.70663331535 -90 -1.25307306699 0.696789531883 1.43378331775 150.923464381 -119.076535619 66.926760311 -9.17642017644e-05 -0.000513044925618 0.000521188593658 -100.137134666 1694.6038583
0.88650650873 0.050683043944 7.32456294887 -1.25190494497 -7.21675774162 0 -7.92521843386 0 -7.92232134835 7.92521843386 -90 -1.25190494497 0.708460692234 1.43847626972 150.494488449 -119.505511551 59.4508684328 -8.4030967623e-05 -0.000484043232528 0.000491284737465 -99.843358486 1592.18208553
0.88650980607 0.052155469318 7.42627167394 -1.25093426294 -7.32015496528 0 -8.03438446289 0 -8.14740794255 8.03438446289 -90 -1.25093426294 0.714229497608 1.44047233596 150.275458771 -119.724541229 55.6964284249 -7.99534688441e-05 -0.000467864412935 0.000474646910319 -99.6975408004 1535.81971174
0.88727331624 0.044145849177 6.36160171435 -1.23574711885 -6.24040819556 0 -6.88900913645 0 -6.89183506354 6.88900913645 -90 -1.23574711885 0.648600940889 1.3956244632 152.30718839 -117.69281161 94.4610314107 -0.000115511407815 -0.00058302003676 0.000594354345879 -101.202840914 1909.81956004
0.88727601042 0.045400803723 6.54545596253 -1.24167162048 -6.42658602194 0 -7.08704055354 0 -7.0844742789 7.08704055354 -90 -1.24167162048 0.660454531602 1.40640124245 151.991662446 -118.008337554 87.5280266916 -0.000108471231051 -0.000561259032095 0.000571646325652 -100.937144432 1873.31572461
0.88727879332 0.046697080895 6.73018357822 -1.24539753066 -6.61393141836 0 -7.28581526451 0 -7.28317303485 7.28581526451 -90 -1.24539753066 0.671883846145 1.41508372302 151.653895937 -118.346104063 80.645239555 -0.000103505356267 -0.00054948802345 0.000559153192303 -100.665797002 1824.59550556
0.88728166712 0.0480357016 6.92079160926 -1.24745534704 -6.8074160834 0 -7.49077116621 0 -7.48805185263 7.49077116621 -90 -1.24745534704 0.683355082811 1.42237185237 151.286518814 -118.713481186 73.6208752119 -9.77014724525e-05 -0.000532918589052 0.000541802203477 -100.386184583 1761.09202142
0.88728463407 0.04941770916 7.11740554038 -1.24784086825 -7.00714105506 0 -7.70202876389 0 -7.69923126489 7.70202876389 -90 -1.24784086825 0.694887708829 1.42828657921 150.888135878 -119.111864122 66.3981522243 -9.09648326215e-05 -0.000510507436339 0.000518550085456 -100.0994818 1679.51130346
0.88728769645 0.050844169775 7.32015016018 -1.24658245799 -7.21320115765 0 -7.91970835293 0 -7.91683159928 7.91970835293 -90 -1.24658245799 0.706507195288 1.43288227054 150.457648954 -119.542351046 58.9019214596 -8.31714898482e-05 -0.000480895458272 0.000488036410117 -99.8070505851 1575.55436445
0.88729085661 0.052316172995 7.42144539065 -1.24557032067 -7.31617395297 0 -8.02842496416 0 -8.14097273862 8.02842496416 -90 -1.24557032067 0.712251011197 1.43483348428 150.2378679 -119.7621321 55.1356217961 -7.90625921249e-05 -0.00046439150278 0.000471073647407 -99.6618964908 1518.38175029
0.88805787589 0.044293782586 6.35907842483 -1.23089645326 -6.2387950353 0 -6.88559094852 0 -6.88820591493 6.88559094852 -90 -1.23089645326 0.646795913213 1.39049075852 152.28015304 -117.71984696 94.0335028147 -0.000114730844688 -0.000581222947682 0.000592439948814 -101.162776582 1899.66191531
0.88806042382 0.045548916193 6.54206262401 -1.23668288879 -6.42409250635 0 -7.08266979866 0 -7.0801204539 7.08266979866 -90 -1.23668288879 0.658577292308 1.40111542673 151.963635292 -118.036364708 87.0982160434 -0.000107879549133 -0.000560230328313 0.00057052414594 -100.89837125 1862.17757437
0.88806305548 0.046845295704 6.72609265404 -1.2403157158 -6.61072428362 0 -7.28068398661 0 -7.27805921201 7.28068398661 -90 -1.2403157158 0.669959702986 1.40969786561 151.624654618 -118.375345382 80.2062422955 -0.000102868704488 -0.000548077838681 0.000557649623148 -100.628293508 1812.44864116
0.88806577293 0.048183938096 6.91596876299 -1.2422842716 -6.80345937764 0 -7.48484303721 0 -7.4821417221 7.48484303721 -90 -1.2422842716 0.681383659567 1.41688973791 151.255972518 -118.744027482 73.1700761322 -9.70179505009e-05 -0.000531081607809 0.000539872161915 -100.349937288 1747.85749036
0.88806857829 0.049565882634 7.11181550213 -1.24258699392 -7.00239761166 0 -7.69526646264 0 -7.69248752424 7.69526646264 -90 -1.24258699392 0.692868850981 1.42271445077 150.856226902 -119.143773098 65.9320013952 -9.02317150306e-05 -0.000508186422937 0.000516136528277 -100.06449271 1665.08453311
0.88807147371 0.050992191328 7.31375667614 -1.24125522698 -7.20763255189 0 -7.9120735623 0 -7.90921595076 7.9120735623 -90 -1.24125522698 0.70444101041 1.42722911341 150.424362184 -119.575637816 58.4151396 -8.23840444016e-05 -0.000478012581665 0.000485061565054 -99.7733384757 1559.78091657
0.88807446139 0.052463949399 7.41465286276 -1.24020957311 -7.31019514463 0 -8.02035703489 0 -8.13244588925 8.02035703489 -90 -1.24020957311 0.710161890261 1.4291430497 150.203893132 -119.796106868 54.6369648989 -7.82467328181e-05 -0.000461209292074 0.000467799721205 -99.6288119976 1501.89745884
0.88884493898 0.044427759522 6.3544760878 -1.22594933993 -6.23507882935 0 -6.87993579779 0 -6.88232480065 6.87993579779 -90 -1.22594933993 0.644856968442 1.38520965511 152.255962935 -117.744037065 93.6709277986 -0.000114008281629 -0.000579558337894 0.000590667028909 -101.125485235 1889.59408633
0.88884731305 0.045683224309 6.53660247523 -1.23161897755 -6.41950586349 0 -7.07607661469 0 -7.07354310272 7.07607661469 -90 -1.23161897755 0.656570751194 1.3957027733 151.938628929 -118.061371071 86.7331036263 -0.000107338736698 -0.000559312795179 0.000569520994248 -100.862368271 1851.27080799
0.88884976497 0.046979863244 6.71996111806 -1.23517919356 -6.60544846743 0 -7.27335982881 0 -7.2707513965 7.27335982881 -90 -1.23517919356 0.667911361375 1.40420517254 151.598585886 -118.401414114 79.8312131987 -0.000102288488757 -0.000546814340104 0.000556300856611 -100.593528667 1800.67778691
0.88885229667 0.048318689495 6.90913252062 -1.23707784635 -6.7974598248 0 -7.47675270189 0 -7.47406825589 7.47675270189 -90 -1.23707784635 0.679292877084 1.41131958525 151.228746649 -118.771253351 72.7825687916 -9.63963447529e-05 -0.000529430105293 0.000538135908087 -100.316385156 1735.15385633
0.88885491011 0.049700738394 7.10424032625 -1.23731580904 -6.99563858532 0 -7.68637378317 0 -7.68361225882 7.68637378317 -90 -1.23731580904 0.690735197857 1.41707168759 150.827779624 -119.172220376 65.5286518775 -8.95660754437e-05 -0.00050609436023 0.000513960372525 -100.032143302 1651.35860143
0.88885760728 0.051127067888 7.30540739142 -1.2359271706 -7.20007710786 0 -7.90234140726 0 -7.89950177294 7.90234140726 -90 -1.2359271706 0.702264299401 1.42152111259 150.394668589 -119.605331411 57.9911131548 -8.1670099657e-05 -0.000475409590075 0.000482375179344 -99.7421983828 1544.90273617
0.88886039022 0.052598758999 7.40591898848 -1.23485570838 -7.30224375519 0 -8.01020801144 0 -8.12185472067 8.01020801144 -90 -1.23485570838 0.707964256252 1.42340511937 150.173573868 -119.826426132 54.2011951821 -7.75075176536e-05 -0.000458334291284 0.000464841641827 -99.5982635942 1486.41160822
0.8896342584 0.044547737886 6.34781339516 -1.22091042947 -6.2292783278 0 -6.87206433724 0 -6.87421960362 6.87206433724 -90 -1.22091042947 0.642786009444 1.37978606417 152.234663079 -117.765336921 93.3734015723 -0.00011334981258 -0.000578060949014 0.000589070792071 -101.090944917 1879.64038255
0.88963643356 0.045803687083 6.52910093028 -1.22648468745 -6.41285165988 0 -7.06728891019 0 -7.06477012135 7.06728891019 -90 -1.22648468745 0.654437250305 1.39016852019 151.916679758 -118.083320242 86.4326912739 -0.000106849246032 -0.000558512246661 0.000568642612573 -100.829107429 1840.62061469
0.88963867991 0.04710074364 6.71181439138 -1.22999249022 -6.59812958386 0 -7.26387070132 0 -7.26127748352 7.26387070132 -90 -1.22999249022 0.665741117463 1.39861060725 151.575726658 -118.424273342 79.5202650182 -0.000101765247897 -0.000545704399499 0.000555113696522 -100.561476135 1789.30954992
0.8896409992 0.048439917042 6.90030830105 -1.23184028447 -6.78944307922 0 -7.4665280583 0 -7.46385933596 7.4665280583 -90 -1.23184028447 0.677084979079 1.40566604632 151.204878112 -118.795121888 72.4585549059 -9.58372528732e-05 -0.000527971962795 0.0005366012566 -100.285503172 1723.0088106
0.88964339323 0.049822238811 7.09470542273 -1.2320311731 -6.98688966552 0 -7.67537859768 0 -7.67263332281 7.67537859768 -90 -1.2320311731 0.688488932159 1.41136259114 150.802830337 -119.197169663 65.1884491646 -8.89686461971e-05 -0.000504240689455 0.000512031000371 -100.002409496 1638.3638333
0.8896458638 0.051248762954 7.29512769896 -1.23060175019 -7.19056054331 0 -7.89053971803 0 -7.88771687626 7.89053971803 -90 -1.23060175019 0.699979174719 1.4157621772 150.368603083 -119.631396917 57.6304221809 -8.10306543503e-05 -0.000473098426531 0.000479989154963 -99.7136067712 1530.95547074
0.88964841279 0.052720566429 7.39526915472 -1.22951198165 -7.29234551904 0 -7.99800570427 0 -8.10922698296 7.99800570427 -90 -1.22951198165 0.705660185232 1.41762339993 150.146944136 -119.853055864 53.8290255857 -7.68461038211e-05 -0.000455779893154 0.000462212771731 -99.5702279062 1471.96306581
0.89042558181 0.044653679356 6.33911962244 -1.2157845299 -6.22142298644 0 -6.86200865885 0 -6.863918754 6.86200865885 -90 -1.2157845299 0.640585672418 1.3742253879 152.21627721 -117.78372279 93.1406466895 -0.000112752307981 -0.00057671949521 0.000587639507727 -101.059122164 1869.81980347
0.89042753566 0.045910267263 6.51958383885 -1.2212841745 -6.40415597794 0 -7.05633502753 0 -7.05382994049 7.05633502753 -90 -1.2212841745 0.652179049591 1.38451730978 151.897817152 -118.102182848 86.1969595181 -0.000106411734442 -0.000557835497111 0.000567895769198 -100.798559828 1830.24756923
0.89042955333 0.04720790072 6.70167832086 -1.22475952057 -6.588793743 0 -7.25224493007 0 -7.24966589319 7.25224493007 -90 -1.22475952057 0.663451187072 1.39291857033 151.556107126 -118.443892874 79.2734843715 -0.000101299702677 -0.000544755731158 0.000554095813395 -100.532108945 1778.36559122
0.89043163639 0.048547585648 6.88952193867 -1.22657522886 -6.77943527019 0 -7.45419740322 0 -7.45154335701 7.45419740322 -90 -1.22657522886 0.67476213303 1.39993325113 151.184397426 -118.815602574 72.1982265625 -9.53414581317e-05 -0.000526715883662 0.000535276868993 -100.257265936 1711.44527515
0.89043378643 0.049930349881 7.08323660311 -1.22673642115 -6.97617699171 0 -7.66230915811 0 -7.65957907154 7.66230915811 -90 -1.22673642115 0.6861321664 1.40559098682 150.781409308 -119.218590692 64.9117380509 -8.84403354007e-05 -0.000502635571419 0.000510358537887 -99.9752670803 1626.12574014
0.89043600509 0.051357243617 7.25123334261 -1.22656307749 -7.1467227443 0 -7.84279900627 0 -7.87388956078 7.84279900627 -90 -1.22656307749 0.69607626197 1.41032111167 150.425482838 -119.574517162 58.679704264 -8.19914248319e-05 -0.000477414417827 0.000484405137486 -99.7403587503 1540.39005792
0.89043829403 0.052829339869 7.38947621607 -1.22684632302 -7.28692025807 0 -7.99140354314 0 -8.09459090406 7.99140354314 -90 -1.22684632302 0.704483285068 1.41472562684 150.134569669 -119.865430331 53.6591169145 -7.65353093494e-05 -0.000454585619806 0.00046098344798 -99.5568510737 1465.01083505
0.89121866297 0.044745550996 6.32842453339 -1.21057530623 -6.21154293236 0 -6.8498012795 0 -6.85145105573 6.8498012795 -90 -1.21057530623 0.638258347138 1.36853191323 152.200818409 -117.799181591 92.9722927746 -0.000112210697615 -0.000575512971395 0.000586351539829 -101.029977846 1860.14566253
0.89122037571 0.046002932936 6.50807753715 -1.2160210049 -6.39344545721 0 -7.04324380337 0 -7.0407513463 7.04324380337 -90 -1.2160210049 0.649798346158 1.37875324687 151.882063559 -118.117936441 86.0258554738 -0.000106026640476 -0.000557288103589 0.00056728596136 -100.770695954 1820.16747781
0.89122214428 0.047301303596 6.68957923654 -1.21948364911 -6.57746759793 0 -7.23851132492 0 -7.23594538068 7.23851132492 -90 -1.21948364911 0.661043726992 1.38713296404 151.539750918 -118.460249082 79.0909359127 -0.000100892376354 -0.000543974811888 0.000553253629851 -100.505399771 1767.86283542
0.89122397005 0.04864166545 6.87679974476 -1.22128581554 -6.7674630528 0 -7.43978950567 0 -7.43714902977 7.43978950567 -90 -1.22128581554 0.672326452872 1.39412487483 151.167328914 -118.832671086 72.0017811676 -9.49095890445e-05 -0.000525669468581 0.000534170298881 -100.231647946 1700.48184347
0.89122585441 0.05002504277 7.06986014895 -1.22143442848 -6.9635272116 0 -7.64719417813 0 -7.64447815547 7.64719417813 -90 -1.22143442848 0.683666966527 1.39976029257 150.763540973 -119.236459027 64.698859343 -8.79818906558e-05 -0.000501287928134 0.000508951867726 -99.9506919884 1614.66501133
0.89122779879 0.051452482064 7.16632953039 -1.22110943463 -7.06152735962 0 -7.75079380822 0 -7.8580484012 7.75079380822 -90 -1.22110943463 0.689266448593 1.40221129975 150.557027841 -119.442972159 61.0437607463 -8.43293923355e-05 -0.000487666382883 0.000494903987776 -99.8107965431 1567.49681639
0.89201325063 0.04482332367 6.31574462405 -1.20528547879 -6.19965490778 0 -6.83546042028 0 -6.83684577749 6.83546042028 -90 -1.20528547879 0.635805512503 1.36270867834 152.188317237 -117.811682763 92.8684901656 -0.000111734094504 -0.000574490773247 0.000585257071996 -101.003493185 1850.62980439
0.89201470511 0.046081655951 6.4946087241 -1.21069810352 -6.38074717825 0 -7.02804442443 0 -7.02556358061 7.02804442443 -90 -1.21069810352 0.647297246172 1.3728798404 151.869434272 -118.130565728 85.9193015138 -0.000105693820426 -0.00055687246763 0.000566815482287 -100.745485228 1810.39160021
0.8920162069 0.047380925101 6.67554382067 -1.21416764384 -6.56417822037 0 -7.22269903078 0 -7.22014514754 7.22269903078 -90 -1.21416764384 0.65852081041 1.38125714042 151.526674844 -118.473325156 78.9726657462 -0.000100543247251 -0.000543365011703 0.000552590419036 -100.481320551 1757.81355761
0.89201775716 0.04872213027 6.86216837139 -1.21597462924 -6.75355347816 0 -7.42333345363 0 -7.4207055018 7.42333345363 -90 -1.21597462924 0.669779975465 1.3882440879 151.153690431 -118.846309569 71.8693898048 -9.45417521165e-05 -0.000524837181698 0.000533285924902 -100.208623259 1690.13202797
0.89201935707 0.050106292285 7.05460266923 -1.21612756785 -6.94896734443 0 -7.63006267331 0 -7.62735965306 7.63006267331 -90 -1.21612756785 0.681095328879 1.39387347064 150.749243682 -119.250756318 64.5501161355 -8.75935570288e-05 -0.000500203490504 0.000507816646759 -99.9286599968 1603.99668471
0.89202100785 0.051534454093 7.15076051937 -1.21580475202 -7.04664410934 0 -7.7333263997 0 -7.84022239065 7.7333263997 -90 -1.21580475202 0.686682290366 1.39632152006 150.542376422 -119.457623578 60.8862507183 -8.39303993356e-05 -0.000486449544701 0.000493636991249 -99.7892341779 1556.66554232
0.89280909416 0.044886972846 6.30112168967 -1.1999186506 -6.18580121013 0 -6.81903160448 0 -6.82013254962 6.81903160448 -90 -1.1999186506 0.633230394352 1.35676032793 152.178758589 -117.821241411 92.8284522345 -0.000111307638746 -0.000573581921411 0.000584283554588 -100.979617995 1841.27656828
0.89281027589 0.046146412716 6.47920449493 -1.20531780863 -6.36608868679 0 -7.01076647003 0 -7.00829623373 7.01076647003 -90 -1.20531780863 0.644677783247 1.36690006061 151.859937572 -118.140062428 85.8772005601 -0.000105413235394 -0.000556591393945 0.000566487045394 -100.722896233 1800.92689203
0.89281149598 0.047446742586 6.6595991447 -1.20881372452 -6.54895312976 0 -7.204837573 0 -7.20229473083 7.204837573 -90 -1.20881372452 0.655884443247 1.37529395167 151.516889002 -118.483110998 78.9186965384 -0.000100252383528 -0.000542929965865 0.000552109735644 -100.459842661 1748.22539987
0.89281275538 0.048788958397 6.84565485309 -1.21064375214 -6.73773402736 0 -7.40485870486 0 -7.40224224148 7.40485870486 -90 -1.21064375214 0.667124677499 1.38229360716 151.143493485 -118.856506515 71.8011889075 -9.42381160353e-05 -0.000524223533846 0.000532628186838 -100.188165666 1680.4041872
0.89281405503 0.050174077654 7.03749114826 -1.21081775955 -6.93252482134 0 -7.61094401908 0 -7.6082529494 7.61094401908 -90 -1.21081775955 0.678419197739 1.38793308003 150.738529846 -119.261470154 64.4657656147 -8.72756117753e-05 -0.000499387789867 0.000506958344748 -99.9091469107 1594.13006502
0.89281539591 0.051603139864 7.1333513283 -1.21050497924 -7.02989172292 0 -7.71388740384 0 -7.82044081541 7.71388740384 -90 -1.21050497924 0.683995680924 1.39038570501 150.531376026 -119.468623974 60.7933446969 -8.36049496831e-05 -0.00048552794598 0.000492673502248 -99.7701639074 1546.73011921
0.89360594254 0.044936478448 6.28456280229 -1.19447460684 -6.16998945915 0 -6.80052265032 0 -6.801341339 6.80052265032 -90 -1.19447460684 0.630533191162 1.35068672891 152.17216717 -117.82783283 92.8524652191 -0.000110951353053 -0.000572891445224 0.000583537873707 -100.958333184 1832.08744076
0.89360683973 0.046197184054 6.46189229137 -1.19988185566 -6.34949794679 0 -6.99143985354 0 -6.98897922074 6.99143985354 -90 -1.19988185566 0.641941906748 1.36081631933 151.853574606 -118.146425394 85.8994310652 -0.000105184499204 -0.000556445720833 0.000566301371725 -100.702896445 1791.77601672
0.89360776598 0.047498737767 6.64177261676 -1.20342355441 -6.53182024209 0 -7.1849567994 0 -7.18242398007 7.1849567994 -90 -1.20342355441 0.653136557309 1.36924573983 151.51039664 -118.48960336 78.9290597085 -0.000100019563835 -0.000542671530405 0.000551813336303 -100.440936739 1739.10218554
0.89360872202 0.04884213244 6.82728655224 -1.20529475706 -6.72003255805 0 -7.38439502709 0 -7.38178901957 7.38439502709 -90 -1.20529475706 0.664362469048 1.37627568684 151.136743115 -118.863256885 71.7973141476 -9.39985656391e-05 -0.000523831159631 0.000532199631561 -100.170248546 1671.30240523
0.89360970855 0.050228382375 7.01855288867 -1.20550646569 -6.91422742943 0 -7.58986788851 0 -7.5871877209 7.58986788851 -90 -1.20550646569 0.675640459079 1.38194126858 150.731405837 -119.268594163 64.4460282886 -8.70280188254e-05 -0.000498844176182 0.00050638023237 -99.8921284411 1585.06904218
0.89361072632 0.051658523761 7.11412922997 -1.20521151942 -7.01129795282 0 -7.69250644691 0 -7.79873323987 7.69250644691 -90 -1.20521151942 0.681208494097 1.38440594603 150.52403357 -119.47596643 60.7653089881 -8.33530508861e-05 -0.00048490533826 0.000492017197385 -99.7535624853 1537.69442118
0.89440354329 0.044971824822 6.26610312467 -1.18895628241 -6.15225522806 0 -6.77997198634 0 -6.78050244385 6.77997198634 -90 -1.18895628241 0.627716758285 1.34449178572 152.16853196 -117.83146804 92.9399847121 -0.000110656826643 -0.000572379569822 0.000582979351071 -100.939604273 1823.06028194
0.89440414686 0.046233955162 6.44269981481 -1.19439137513 -6.33100325336 0 -6.9700947319 0 -6.9676427781 6.9700947319 -90 -1.19439137513 0.639091478533 1.35463046649 151.850339235 -118.149660765 85.9858108454 -0.00010500720737 -0.00055643605037 0.000566258950935 -100.685452139 1782.93669592
0.89440476996 0.047536896695 6.59509702579 -1.19845199925 -6.48527693402 0 -7.13417430496 0 -7.16056305629 7.13417430496 -90 -1.19845199925 0.648897370948 1.36285407488 151.567472707 -118.432527293 80.1691624453 -0.000100802639205 -0.00054529776136 0.000554537836941 -100.471589888 1741.79137174
0.89440541304 0.048881639295 6.81765100002 -1.20261824133 -6.71072339804 0 -7.37367952483 0 -7.35937590718 7.37367952483 -90 -1.20261824133 0.662956126796 1.37325278052 151.134231201 -118.865768799 71.8114498147 -9.38948584749e-05 -0.000523690588896 0.000532042948118 -100.161928451 1666.91201565
0.8944060766 0.050269194183 7.00863922543 -1.20285282927 -6.90462697356 0 -7.57885385236 0 -7.56419393264 7.57885385236 -90 -1.20285282927 0.674226878798 1.37893528481 150.728743148 -119.271256852 64.4523188593 -8.69218607777e-05 -0.000498640787604 0.000506161620182 -99.8842458869 1580.74354097
0.89440676112 0.051700594353 7.10407702992 -1.2025686868 -7.00155261357 0 -7.68134378696 0 -7.77512950824 7.68134378696 -90 -1.2025686868 0.679791173395 1.38140779131 150.521278797 -119.478721203 60.767522832 -8.32455426922e-05 -0.000484669236281 0.000491766295078 -99.7458818655 1533.40495019
0.89520164711 0.044993000919 6.24578566642 -1.18336364592 -6.13264261409 0 -6.75742609374 0 -6.75764633551 6.75742609374 -90 -1.18336364592 0.624783479653 1.3381765699 152.167802228 -117.832197772 93.0897413445 -0.000110400406441 -0.000571930596276 0.000582489874999 -100.923359744 1814.18012076