TITLE = Boundary data
VARIABLES =  "x0" "x1" "dp" "u" "v" "T" "EpR" "EpI" "rho" "H" "M" "xc0" "xc1" "xc2" "xc3" "xc4" "xc5" "xc6" "xc7" "xc8" "xc9" "xc10"
ZONE   T= "ZONE0 symmetry", N=185, E=184, F=FEPOINT, ET=LINESEG, SOLUTIONTIME=0.00000000000000e+00
+8.71000000000000e-01 +0.00000000000000e+00 +1.58162463701237e+01 +1.68237592154739e-05 +1.62031304172527e-15 +3.82096578800434e+02 +0.00000000000000e+00 +0.00000000000000e+00 +9.09555903637640e-02 +8.50604786774001e+04 +4.29153764087429e-08 +0.00000000000000e+00 +0.00000000000000e+00 +0.00000000000000e+00 +1.55003125398072e-31 +0.00000000000000e+00 +6.62739568170996e-13 +7.89999999999668e-01 +0.00000000000000e+00 +2.09999999999669e-01 +0.00000000000000e+00 +8.52457158898012e-41
+0.00000000000000e+00 +0.00000000000000e+00 +2.17531810850425e+01 +0.00000000000000e+00 +0.00000000000000e+00 +3.50000000000000e+02 -1.31973978604880e+00 +2.41053812309393e+00 +9.93554869555452e-02 +5.24770513704712e+04 +0.00000000000000e+00 +0.00000000000000e+00 +0.00000000000000e+00 +0.00000000000000e+00 +1.15007430875237e-34 +0.00000000000000e+00 +4.78075911583501e-14 +7.89999999999976e-01 +0.00000000000000e+00 +2.09999999999976e-01 +0.00000000000000e+00 +2.70960291443459e-44
+8.70999000000000e-01 +0.00000000000000e+00 +1.58157978944338e+01 +4.16082588849201e-05 +3.17340554875645e-15 +4.14385995110709e+02 +0.00000000000000e+00 +0.00000000000000e+00 +8.38682261337521e-02 +1.17945886754950e+05 +1.01991597746231e-07 +0.00000000000000e+00 +0.00000000000000e+00 +0.00000000000000e+00 +7.10340241952527e-29 +0.00000000000000e+00 +6.18770059995391e-12 +7.89999999996906e-01 +0.00000000000000e+00 +2.09999999996906e-01 +0.00000000000000e+00 +8.04788594403370e-38
+8.70997800000000e-01 +0.00000000000000e+00 +1.58145674855076e+01 +1.19959754442619e-04 +6.31038190451738e-15 +4.81188913616085e+02 +0.00000000000000e+00 +0.00000000000000e+00 +7.22248852618963e-02 +1.86428366495048e+05 +2.73399386458160e-07 +0.00000000000000e+00 +1.59115594881380e-48 +0.00000000000000e+00 +1.69058543883459e-24 +0.00000000000000e+00 +2.42816596637978e-10 +7.89999999878208e-01 +0.00000000000000e+00 +2.09999999878975e-01 +0.00000000000000e+00 +1.71733854364892e-32
+8.70996360000000e-01 +0.00000000000000e+00 +1.58126978729842e+01 +2.72323367554728e-04 +9.48514270598944e-15 +5.52603568855164e+02 +0.00000000000000e+00 +0.00000000000000e+00 +6.28910299292126e-02 +2.60490359577023e+05 +5.80634154485230e-07 +0.00000000000000e+00 +7.04699746311048e-42 +0.00000000000000e+00 +5.51747159844215e-21 +0.00000000000000e+00 +4.60032435759266e-09 +7.89999997699732e-01 +0.00000000000000e+00 +2.09999997699944e-01 +7.07825409534224e-46 +1.46977234578269e-28
+8.70994632000000e-01 +0.00000000000000e+00 +1.58101981299915e+01 +5.36489662554589e-04 +1.26339910755391e-14 +6.29135882985389e+02 +0.00000000000000e+00 +0.00000000000000e+00 +5.52405288808230e-02 +3.41037105531955e+05 +1.07529485055591e-06 +0.00000000000000e+00 +1.99828218083546e-36 +0.00000000000000e+00 +4.22712976209061e-18 +0.00000000000000e+00 +5.12652824836762e-08 +7.89999974367327e-01 +0.00000000000000e+00 +2.09999974367390e-01 +1.43950975066728e-40 +2.49879436983561e-25
+8.70992558400000e-01 +0.00000000000000e+00 +1.58069839852219e+01 +9.64969647033415e-04 +1.56595656580771e-14 +7.11768126251199e+02 +0.00000000000000e+00 +0.00000000000000e+00 +4.88274010587115e-02 +4.29507925022964e+05 +1.82442626885653e-06 +1.56035737358001e-49 +7.51221806787335e-32 +0.00000000000000e+00 +1.11544947543997e-15 +0.00000000000000e+00 +3.86792815789497e-07 +7.89999806603582e-01 +0.00000000000000e+00 +2.09999806603601e-01 +4.11445997584534e-36 +1.29489387768194e-22
+8.70990070080000e-01 +0.00000000000000e+00 +1.58028991578230e+01 +1.62984986295387e-03 +1.84114876122798e-14 +8.01355177540499e+02 +0.00000000000000e+00 +0.00000000000000e+00 +4.33687515366412e-02 +5.27232528326796e+05 +2.91411973425313e-06 +1.20003732439170e-43 +5.93998083051710e-28 +0.00000000000000e+00 +1.29283020354464e-13 +0.00000000000000e+00 +2.16029494345139e-06 +7.89998919852474e-01 +0.00000000000000e+00 +2.09998919852453e-01 +2.58862608070382e-32 +2.68355860618276e-20
+8.70987084100000e-01 +0.00000000000000e+00 +1.57977743116282e+01 +2.62743608388239e-03 +2.06980699940518e-14 +8.98377923616025e+02 +0.00000000000000e+00 +0.00000000000000e+00 +3.86850064888784e-02 +6.35127047082148e+05 +4.45185586766398e-06 +1.37047332427949e-38 +1.32376215221100e-24 +0.00000000000000e+00 +7.67815998033213e-12 +1.73836497803559e-48 +9.45212402875291e-06 +7.89995273934952e-01 +7.53322144819321e-48 +2.09995273933341e-01 +4.76496733364176e-29 +2.64189783766329e-18
+8.70983500920000e-01 +0.00000000000000e+00 +1.57914973739775e+01 +4.08334286435295e-03 +2.23458404557952e-14 +1.00336450596042e+03 +0.00000000000000e+00 +0.00000000000000e+00 +3.46371969641634e-02 +7.54133925002170e+05 +6.56790722426175e-06 +3.27041177373934e-34 +1.04283478333763e-21 +0.00000000000000e+00 +2.63288401647598e-10 +3.22080387881386e-43 +3.38495955489376e-05 +7.89983075098226e-01 +5.82811108728466e-43 +2.09983075042937e-01 +3.19857369785166e-26 +1.41171253113207e-16
+8.70979201100000e-01 +0.00000000000000e+00 +1.57839183215636e+01 +6.18806529276563e-03 +2.32422588120063e-14 +1.11802123146368e+03 +0.00000000000000e+00 +0.00000000000000e+00 +3.10850157810788e-02 +8.86564161617670e+05 +9.45832769038163e-06 +2.30522206183311e-30 +3.65267754074084e-19 +0.00000000000000e+00 +5.88363887769117e-09 +1.37579093272613e-38 +1.03698672893474e-04 +7.89948148339512e-01 +1.15188649895929e-38 +2.09948147103951e-01 +9.78927832817792e-24 +4.68899067318476e-15
+8.70974041320000e-01 +0.00000000000000e+00 +1.57747023573311e+01 +9.20615472559541e-03 +2.33745314770495e-14 +1.24426263987873e+03 +0.00000000000000e+00 +0.00000000000000e+00 +2.79311401100216e-02 +1.03511446124194e+06 +1.33789839599130e-05 +6.10242677306715e-27 +6.66944498186147e-17 +1.09447077823799e-46 +9.31891406042396e-08 +1.80875955604752e-34 +2.80197545091741e-04 +7.89859864417660e-01 +7.61012443811055e-35 +2.09859844848002e-01 +1.59500481289306e-21 +1.06369698868741e-13
+8.70967849580000e-01 +0.00000000000000e+00 +1.57634205835441e+01 +1.34825158831889e-02 +2.28458744977456e-14 +1.38303829617147e+03 +0.00000000000000e+00 +0.00000000000000e+00 +2.51284565094197e-02 +1.20154041386664e+06 +1.86416229500342e-05 +1.85083001231523e-23 +6.85322671344826e-15 +3.93881739935005e-42 +1.08907659759319e-06 +3.09370533889464e-31 +6.77618280226669e-04 +7.89660760674123e-01 +7.03791231966577e-32 +2.09660531968411e-01 +5.48293968756574e-20 +6.34214702065359e-13
+8.70960419500000e-01 +0.00000000000000e+00 +1.57497049030704e+01 +1.94876638161463e-02 +2.16927170670900e-14 +1.53516591568321e+03 +0.00000000000000e+00 +0.00000000000000e+00 +2.26382178042069e-02 +1.38769437028578e+06 +2.56578026256250e-05 +2.69975647429365e-16 +4.21980645721716e-13 +3.85780847384747e-42 +9.70513293607730e-06 +2.01973241082646e-32 +1.48415153040198e-03 +7.89254090706227e-01 +2.65298009154110e-33 +2.09252052630013e-01 +1.10640068219467e-22 +2.69975536816856e-16
+8.70951503400000e-01 +0.00000000000000e+00 +1.57334139097736e+01 +2.78386114187462e-02 +1.99831470815148e-14 +1.70094233234253e+03 +0.00000000000000e+00 +0.00000000000000e+00 +2.04312385482294e-02 +1.59532621978796e+06 +3.49513819090862e-05 +1.30833701187411e-14 +1.63113582533105e-11 +1.79160032051845e-37 +6.75575504215432e-05 +8.49807014016652e-29 +2.96922776129802e-03 +7.88488700872319e-01 +6.84612239455256e-30 +2.08474513799624e-01 +2.12699598173187e-20 +1.30833488487811e-14
+8.70940804080000e-01 +0.00000000000000e+00 +1.57149237817365e+01 +3.92929600559411e-02 +1.79639289554778e-14 +1.87883293981681e+03 +0.00000000000000e+00 +0.00000000000000e+00 +1.84939418791312e-02 +1.82536415927065e+06 +4.71750247612174e-05 +3.97162584878439e-13 +4.03236549297514e-10 +2.25141846174131e-33 +3.70675265258017e-04 +1.29773604244040e-25 +5.44148316609246e-03 +7.87132841325767e-01 +6.80158358528185e-27 +2.07054999838851e-01 +2.15824835012094e-18 +3.97160426629954e-13
+8.70927964890000e-01 +0.00000000000000e+00 +1.56951757358405e+01 +5.47520830218729e-02 +1.58865975929956e-14 +2.06304589637930e+03 +0.00000000000000e+00 +0.00000000000000e+00 +1.68323307188967e-02 +2.07710406751834e+06 +6.32104770736841e-05 +7.38084150399648e-12 +6.25170379227201e-09 +7.22924960200460e-30 +1.58424060150944e-03 +6.86838470038781e-23 +9.08891764883029e-03 +7.84829760533193e-01 +2.49478623275316e-24 +2.04497074950002e-01 +1.12070374652094e-16 +7.38072943355072e-12
+8.70912557870000e-01 +0.00000000000000e+00 +1.56748691127006e+01 +7.53711211215220e-02 +1.39107475538580e-14 +2.24264057486670e+03 +0.00000000000000e+00 +0.00000000000000e+00 +1.54565744238069e-02 +2.34910026077780e+06 +8.43294543901760e-05 +8.06923421512491e-11 +5.87329267179912e-08 +5.36224821680593e-27 +5.16712290492575e-03 +1.16201167372116e-20 +1.37173093327859e-02 +7.81100279116090e-01 +3.13744775929955e-22 +2.00015229751887e-01 +2.82160524363412e-15 +8.06895205341079e-11
+8.70894069440000e-01 +0.00000000000000e+00 +1.56534872323582e+01 +1.02661666896154e-01 +1.20875531806064e-14 +2.40630797682556e+03 +0.00000000000000e+00 +0.00000000000000e+00 +1.43493684755617e-02 +2.64113701467186e+06 +1.12035016520472e-04 +5.23199118220115e-10 +3.38094395209017e-07 +9.49210543498611e-25 +1.29052328836893e-02 +6.42734726678750e-19 +1.87033317640539e-02 +7.75550463859523e-01 +1.38474899226793e-20 +1.92840632351941e-01 +3.48203582422406e-14 +5.23164297205290e-10
+8.70871883330000e-01 +0.00000000000000e+00 +1.56294176122381e+01 +1.38776873675138e-01 +1.04395658784284e-14 +2.55006547758262e+03 +0.00000000000000e+00 +0.00000000000000e+00 +1.34521629757230e-02 +2.95635944165092e+06 +1.48121419808221e-04 +2.20991070193587e-09 +1.30569743483424e-06 +5.23373263117721e-23 +2.58538967939810e-02 +1.42661991043729e-17 +2.34034174826667e-02 +7.68084830575174e-01 +2.60513870604763e-19 +1.82656545030922e-01 +2.39105337900378e-13 +2.20967158207120e-09
+8.70845260000000e-01 +0.00000000000000e+00 +1.56007286962250e+01 +1.86963082746157e-01 +8.94943841256435e-15 +2.67760229116867e+03 +0.00000000000000e+00 +0.00000000000000e+00 +1.26916330471576e-02 +3.30279695362465e+06 +1.95192387743507e-04 +6.92815778302127e-09 +3.82885738301465e-06 +1.29417556927242e-21 +4.43045482019432e-02 +1.68412404949786e-16 +2.74758361205323e-02 +7.58758349635830e-01 +2.72703727331076e-18 +1.69457423327996e-01 +1.08915775066890e-12 +6.92706845412989e-09
+8.70813312000000e-01 +0.00000000000000e+00 +1.55655447167576e+01 +2.51925718017856e-01 +7.57380269611474e-15 +2.79494329757146e+03 +0.00000000000000e+00 +0.00000000000000e+00 +1.20091438685090e-02 +3.69159246766826e+06 +2.56966378271655e-04 +1.79311044879843e-08 +9.43102508763845e-06 +1.93393595977555e-20 +6.83630786385753e-02 +1.33040837041721e-15 +3.07766101886805e-02 +7.47599814946741e-01 +1.97600824124460e-17 +1.53251029338707e-01 +3.79353105683011e-12 +1.79273096067398e-08
+8.70774974400000e-01 +0.00000000000000e+00 +1.55217169817018e+01 +3.40301053430838e-01 +6.29878094127179e-15 +2.90791310578221e+03 +0.00000000000000e+00 +0.00000000000000e+00 +1.13641677419147e-02 +4.13576177535872e+06 +3.38440837747687e-04 +4.12246780772978e-08 +2.09352175335786e-05 +2.15355345229242e-19 +9.82033386100147e-02 +8.24751115622176e-15 +3.31937618886645e-02 +7.34594010110659e-01 +1.15590677726988e-16 +1.33987871723772e-01 +1.11170434197764e-11 +4.12135526705696e-08
+8.70728969280000e-01 +0.00000000000000e+00 +1.54656722089294e+01 +4.61457449064537e-01 +5.03069808033274e-15 +3.02234312793115e+03 +0.00000000000000e+00 +0.00000000000000e+00 +1.07276452749679e-02 +4.65033645254064e+06 +4.46138157405740e-04 +8.87119360915804e-08 +4.41181411701700e-05 +2.09130692752883e-18 +1.34045138832605e-01 +4.50543140627797e-14 +3.45573338528979e-02 +7.19733903074552e-01 +6.13058497937774e-16 +1.11619328674903e-01 +2.92413456479376e-11 +8.86826490764686e-08
+8.70673763140000e-01 +0.00000000000000e+00 +1.53896083307690e+01 +6.29246811012051e-01 +3.70189989773451e-15 +3.14575787646610e+03 +0.00000000000000e+00 +0.00000000000000e+00 +1.00746031038981e-02 +5.25343300180576e+06 +5.88742651750250e-04 +1.87065988897838e-07 +9.26705752160516e-05 +2.05937413953425e-17 +1.76014664220340e-01 +2.40973459906706e-13 +3.45709511669386e-02 +7.03105550605879e-01 +3.29899122957286e-15 +8.62157892996488e-02 +7.26058084244371e-11 +1.86993138796369e-07
+8.70607515760000e-01 +0.00000000000000e+00 +1.52759975655419e+01 +8.66676426603854e-01 +2.38351005599213e-15 +3.29184948728763e+03 +0.00000000000000e+00 +0.00000000000000e+00 +9.37435852336283e-03 +5.96888671097169e+06 +7.78825977415462e-04 +4.10087785936156e-07 +2.07679357388979e-04 +2.55132240556388e-16 +2.23834670591888e-01 +1.45396737140112e-12 +3.26842900508190e-02 +6.85056758142705e-01 +2.11939351251002e-14 +5.82157816816272e-02 +1.79755637873283e-10 +4.09906554881844e-07
+8.70528018920000e-01 +0.00000000000000e+00 +1.50955672179431e+01 +1.21818542913454e+00 +1.25593979660721e-15 +3.49684385364102e+03 +0.00000000000000e+00 +0.00000000000000e+00 +8.56525910639488e-03 +6.83445392990712e+06 +1.03470629735742e-03 +1.05829591641445e-06 +5.77379126192523e-04 +6.45847523987336e-15 +2.75665876655997e-01 +1.34433037142374e-11 +2.77406170369093e-02 +6.66723550929011e-01 +2.35029310372971e-13 +2.92904596600580e-02 +4.89979353942579e-10 +1.05779225226967e-06
+8.70432622700000e-01 +0.00000000000000e+00 +1.48683005771464e+01 +1.73806993100459e+00 +4.02455846426619e-16 +3.85924140752026e+03 +0.00000000000000e+00 +0.00000000000000e+00 +7.55540926011644e-03 +7.86275491082301e+06 +1.35428071116286e-03 +4.11771801884592e-06 +2.73120349557221e-03 +9.34282063632928e-13 +3.19119379021994e-01 +3.55737204635316e-10 +1.84516735908807e-02 +6.52272270403302e-01 +9.90897722866785e-12 +7.41723805221345e-03 +1.73036659571500e-09 +4.11562107178627e-06
+8.70318147240000e-01 +0.00000000000000e+00 +1.46748992810862e+01 +2.44565173349392e+00 -1.70002900645727e-16 +4.34729723998035e+03 +0.00000000000000e+00 +0.00000000000000e+00 +6.60085638111110e-03 +8.93894770784202e+06 +1.79870737305221e-03 +1.71939996002827e-05 +1.48063156857804e-02 +2.21450142573187e-10 +3.33590898008473e-01 +1.18627810705924e-08 +1.05646219271216e-02 +6.39675455254845e-01 +6.21760210317865e-10 +1.32832112457943e-03 +5.76554177386788e-09 +1.71755280670853e-05
+8.70180776690000e-01 +0.00000000000000e+00 +1.45402568880705e+01 +3.32889947854142e+00 -2.81025203108243e-16 +4.76067608499138e+03 +0.00000000000000e+00 +0.00000000000000e+00 +5.91416950276279e-03 +1.02095379962616e+07 +2.37109237721656e-03 +4.52814526981297e-05 +4.67756320240284e-02 +9.69457678879235e-09 +3.32648042805159e-01 +1.32063928599816e-07 +6.84768928249882e-03 +6.13257585693642e-01 +1.08124576562630e-08 +3.80487289275751e-04 +1.26945790203691e-08 +4.51161871560853e-05
+8.70015932030000e-01 +0.00000000000000e+00 +1.44077653726972e+01 +4.40661907231609e+00 -5.55111512312578e-17 +5.04647768387158e+03 +0.00000000000000e+00 +0.00000000000000e+00 +5.44615247246798e-03 +1.15907181288280e+07 +3.04314529598282e-03 +7.97349858544679e-05 +9.13249646335243e-02 +9.24945108692602e-08 +3.26659886156995e-01 +5.57413878378560e-07 +5.10086033973523e-03 +5.76580216043980e-01 +5.85560145174322e-08 +1.74602854056149e-04 +2.00189994406302e-08 +7.90065024512619e-05
+8.69818118430000e-01 +0.00000000000000e+00 +1.42333277111946e+01 +5.75476963907972e+00 +3.33066907387547e-16 +5.26953236684263e+03 +0.00000000000000e+00 +0.00000000000000e+00 +5.06844382163312e-03 +1.31275937754167e+07 +3.85177482367207e-03 +1.17670933122754e-04 +1.44029843184934e-01 +4.53093008331324e-07 +3.18488824543473e-01 +1.54248244763593e-06 +4.01886109939619e-03 +5.33128880597972e-01 +1.89269172271614e-07 +9.82487079792786e-05 +2.72845076210495e-08 +1.15458803986894e-04
+8.69580742120000e-01 +0.00000000000000e+00 +1.40122159530222e+01 +7.47755685410685e+00 +5.55111512312578e-16 +5.46074288103322e+03 +0.00000000000000e+00 +0.00000000000000e+00 +4.73259885658805e-03 +1.48646441905712e+07 +4.84687747274679e-03 +1.58887910804265e-04 +2.03314958976053e-01 +1.58734924679615e-06 +3.08861778119568e-01 +3.45736452214352e-06 +3.23452853859157e-03 +4.84209998345031e-01 +4.69213637098509e-07 +6.09601991472894e-05 +3.44931149435811e-08 +1.53339490283283e-04
+8.69295890540000e-01 +0.00000000000000e+00 +1.37427263030323e+01 +9.68585936355530e+00 +7.00828284294630e-16 +5.63398347004551e+03 +0.00000000000000e+00 +0.00000000000000e+00 +4.42084418660961e-03 +1.68262157059071e+07 +6.07352492770805e-03 +2.03788030446920e-04 +2.67781657191805e-01 +4.55244154096332e-06 +2.98165855309459e-01 +6.84399233481020e-06 +2.61905026639618e-03 +4.30985940008794e-01 +9.86948479563045e-07 +3.99211626484410e-05 +4.16093206645348e-08 +1.91363038774117e-04
+8.68954068650000e-01 +0.00000000000000e+00 +1.34201331014863e+01 +1.24947682301631e+01 +8.95117313604032e-16 +5.79639954650124e+03 +0.00000000000000e+00 +0.00000000000000e+00 +4.12740590655854e-03 +1.90134608231996e+07 +7.57125888830270e-03 +2.53362471441922e-04 +3.35584539860762e-01 +1.13884503460326e-05 +2.86780518720623e-01 +1.24639922403111e-05 +2.11715221474467e-03 +3.74984030561410e-01 +1.84442415529249e-06 +2.70336995731460e-05 +4.85154758773897e-08 +2.27617089227043e-04
+8.68543882380000e-01 +0.00000000000000e+00 +1.30389519266609e+01 +1.60106930604170e+01 +9.78384040450919e-16 +5.95169284000638e+03 +0.00000000000000e+00 +0.00000000000000e+00 +3.85287600757830e-03 +2.13920292247858e+07 +9.36927517731538e-03 +3.09455693898919e-04 +4.04157082930980e-01 +2.56055694295174e-05 +2.75178619463951e-01 +2.12900505403996e-05 +1.70276028380690e-03 +3.18323863734883e-01 +3.12622851961889e-06 +1.87621985800979e-05 +5.49845639965276e-08 +2.59378860845385e-04
+8.68051658850000e-01 +0.00000000000000e+00 +1.25957061584701e+01 +2.03063497671076e+01 +7.84095011141517e-16 +6.10115146772078e+03 +0.00000000000000e+00 +0.00000000000000e+00 +3.60178846761730e-03 +2.38774143291287e+07 +1.14787071683078e-02 +3.74945276992250e-04 +4.70197746713474e-01 +5.23114230754998e-05 +2.63946480056227e-01 +3.43410853970827e-05 +1.36305015966374e-03 +2.63729505550148e-01 +4.84034873746905e-06 +1.33269665035550e-05 +6.06811701495756e-08 +2.83391738612049e-04
+8.67460990630000e-01 +0.00000000000000e+00 +1.20898819777588e+01 +2.53823334312641e+01 +4.85722573273506e-16 +6.24346270874882e+03 +0.00000000000000e+00 +0.00000000000000e+00 +3.38115313866755e-03 +2.63242607347507e+07 +1.38831567425654e-02 +4.53011303232775e-04 +5.29905989185261e-01 +9.69406566202073e-05 +2.53750248229063e-01 +5.22072163296047e-05 +1.09159555792596e-03 +2.14336407376344e-01 +6.84941659085949e-06 +9.73704493978021e-06 +6.52354239561523e-08 +2.96948778268146e-04
+8.66752188750000e-01 +0.00000000000000e+00 +1.15230811456188e+01 +3.11283254280990e+01 +3.19189119579733e-16 +6.37403111885561e+03 +0.00000000000000e+00 +0.00000000000000e+00 +3.19864378780708e-03 +2.85390019464733e+07 +1.65328807519475e-02 +5.44297744096527e-04 +5.79652351232604e-01 +1.61428388122645e-04 +2.45224483841543e-01 +7.42297328450099e-05 +8.84419877010174e-04 +1.73142753461220e-01 +8.86231782730891e-06 +7.39609942919887e-06 +6.84209464065400e-08 +2.99708884355157e-04
+8.65901626500000e-01 +0.00000000000000e+00 +1.08954474715642e+01 +3.73188441284438e+01 +9.36750677027476e-17 +6.48537578906684e+03 +0.00000000000000e+00 +0.00000000000000e+00 +3.05962302842254e-03 +3.03367150332692e+07 +1.93510592539074e-02 +6.42427528640761e-04 +6.17133355717791e-01 +2.39211753872186e-04 +2.38777017966900e-01 +9.78372659638768e-05 +7.36640003545047e-04 +1.42062214010289e-01 +1.05568900839237e-05 +5.91724419352565e-06 +7.03265031614439e-08 +2.94751292217613e-04
+8.64880951800000e-01 +0.00000000000000e+00 +1.02012960986999e+01 +4.36690738741560e+01 +3.46944695195361e-17 +6.57005084894205e+03 +0.00000000000000e+00 +0.00000000000000e+00 +2.96427146779260e-03 +3.16180018518820e+07 +2.22527600024925e-02 +7.32828357022099e-04 +6.42271928701002e-01 +3.14901693890092e-04 +2.34435853199197e-01 +1.19045397009652e-04 +6.40288115646517e-04 +1.21181241397202e-01 +1.17540290985437e-05 +5.03187290803071e-06 +7.13072267901422e-08 +2.87055929797023e-04
+8.63656142160000e-01 +0.00000000000000e+00 +9.43066036540020e+00 +4.99473578835933e+01 +1.28369537222284e-16 +6.62575821753290e+03 +0.00000000000000e+00 +0.00000000000000e+00 +2.90624821928952e-03 +3.24123991854814e+07 +2.51722632423338e-02 +8.01036568945491e-04 +6.57189803040598e-01 +3.73363246208136e-04 +2.31850349536171e-01 +1.34642120790265e-04 +5.83753994463560e-04 +1.08769480852344e-01 +1.24760163281064e-05 +4.53943852586403e-06 +7.17586158350279e-08 +2.80483427009419e-04
+8.62390527940000e-01 +0.00000000000000e+00 +8.69301753515473e+00 +5.52507397744376e+01 +3.46944695195361e-17 +6.65392182681539e+03 +0.00000000000000e+00 +0.00000000000000e+00 +2.87820612563069e-03 +3.27987293522431e+07 +2.76933074433870e-02 +8.38436982377165e-04 +6.64251405514754e-01 +4.05717666396876e-04 +2.30623257258927e-01 +1.43051782460455e-04 +5.57077539363032e-04 +1.02887072003531e-01 +1.28177851996902e-05 +4.31371866798648e-06 +7.19342064114049e-08 +2.76777814116953e-04
+8.61124913730000e-01 +0.00000000000000e+00 +8.01163459716338e+00 +5.96599225126490e+01 +7.97972798949331e-17 +6.66780409349622e+03 +0.00000000000000e+00 +0.00000000000000e+00 +2.86462690415334e-03 +3.29853430720367e+07 +2.98237668844330e-02 +8.57642740672864e-04 +6.67615925139502e-01 +4.22390877903701e-04 +2.30037747500635e-01 +1.47332334487502e-04 +5.44370458344909e-04 +1.00082463792473e-01 +1.29801653570417e-05 +4.20762769660961e-06 +7.20080658749328e-08 +2.74867354861091e-04
+8.59859299510000e-01 +0.00000000000000e+00 +7.38467233012324e+00 +6.34023508109337e+01 -2.42861286636753e-17 +6.67564594941498e+03 +0.00000000000000e+00 +0.00000000000000e+00 +2.85698083874307e-03 +3.30897474847876e+07 +3.16471858295670e-02 +8.68727970089131e-04 +6.69484112572113e-01 +4.32029997818601e-04 +2.29712379081530e-01 +1.49791773628885e-04 +5.37311235724265e-04 +9.85245920962010e-02 +1.30700504622617e-05 +4.14907425196464e-06 +7.20456998835908e-08 +2.73764102481470e-04
+8.58593685300000e-01 +0.00000000000000e+00 +6.81024012888033e+00 +6.66314044980232e+01 -9.19403442267708e-17 +6.68115035759280e+03 +0.00000000000000e+00 +0.00000000000000e+00 +2.85161535541476e-03 +3.31626158211357e+07 +3.32241462683713e-02 +8.76613522531041e-04 +6.70781788939702e-01 +4.38893238274414e-04 +2.29486259435221e-01 +1.51536430978623e-04 +5.32405394620864e-04 +9.74422106449182e-02 +1.31323340883676e-05 +4.10854047344633e-06 +7.20702798019229e-08 +2.72979448911570e-04
+8.57328071080000e-01 +0.00000000000000e+00 +6.28579844077292e+00 +6.94497644027724e+01 +2.32452945780892e-16 +6.68581967673335e+03 +0.00000000000000e+00 +0.00000000000000e+00 +2.84707996819834e-03 +3.32241201982271e+07 +3.45987798146749e-02 +8.83369430276250e-04 +6.71873350005709e-01 +4.44776993302068e-04 +2.29295979697060e-01 +1.53027906535540e-04 +5.28277916512818e-04 +9.65315789799188e-02 +1.31846484583935e-05 +4.07454024454699e-06 +7.20901390875297e-08 +2.72307791842735e-04
+8.56062456860000e-01 +0.00000000000000e+00 +5.80813732839080e+00 +7.19297337853141e+01 +2.08166817117217e-17 +6.69022071035425e+03 +0.00000000000000e+00 +0.00000000000000e+00 +2.84283313019203e-03 +3.32817934759243e+07 +3.58044198545356e-02 +8.89792064556876e-04 +6.72894037100067e-01 +4.50373268500890e-04 +2.29117988988689e-01 +1.54442994131581e-04 +5.24418403211088e-04 +9.56799285447399e-02 +1.32335254445841e-05 +4.04283417793880e-06 +7.21082095394655e-08 +2.71670168271707e-04
+8.54796842650000e-01 +0.00000000000000e+00 +5.37365717543154e+00 +7.41255389065204e+01 -6.47051856539349e-16 +6.69455596467417e+03 +0.00000000000000e+00 +0.00000000000000e+00 +2.83868229153868e-03 +3.33383067951722e+07 +3.68672336785200e-02 +8.96170464851698e-04 +6.73891583379019e-01 +4.55933424484565e-04 +2.28943970196606e-01 +1.55845623664443e-04 +5.20646595101543e-04 +9.48474469691808e-02 +1.32812645765651e-05 +4.01193038875090e-06 +7.21254793802999e-08 +2.71038026648046e-04
+8.53531228430000e-01 +0.00000000000000e+00 +4.97864342572535e+00 +7.60799107837555e+01 -7.18175519054398e-16 +6.69889501299625e+03 +0.00000000000000e+00 +0.00000000000000e+00 +2.83456120671315e-03 +3.33945701593886e+07 +3.78083547297042e-02 +9.02606075533509e-04 +6.74882160773601e-01 +4.61545732616353e-04 +2.28771103376212e-01 +1.57258115775165e-04 +5.16901300355587e-04 +9.40206410750401e-02 +1.33286405540808e-05 +3.98132372365140e-06 +7.21422619172481e-08 +2.70401444327184e-04
+8.52265614220000e-01 +0.00000000000000e+00 +4.61951488919021e+00 +7.78275868598552e+01 -4.59701721133854e-16 +6.70326135341843e+03 +0.00000000000000e+00 +0.00000000000000e+00 +2.83044719421599e-03 +3.34508863255668e+07 +3.86451612584550e-02 +9.09134696111980e-04 +6.75871094838803e-01 +4.67241354603896e-04 +2.28598458473792e-01 +1.58688261118967e-04 +5.13162249103872e-04 +9.31950641989881e-02 +1.33759045591822e-05 +3.95084708877833e-06 +7.21586459278294e-08 +2.69757017184183e-04
+8.51000000000000e-01 +0.00000000000000e+00 +4.29281504623657e+00 +7.93974708435453e+01 -4.09394740330526e-16 +6.70766307517163e+03 +0.00000000000000e+00 +0.00000000000000e+00 +2.82633209628984e-03 +3.35073557568665e+07 +3.93921813637354e-02 +9.15770019504217e-04 +6.76860108450422e-01 +4.73032207293519e-04 +2.28425733357487e-01 +1.60138964023817e-04 +5.09422765053464e-04 +9.23692749426446e-02 +1.34231340056381e-05 +3.92044538391948e-06 +7.21746478876103e-08 +2.69103539534343e-04
+8.49734390000000e-01 +0.00000000000000e+00 +3.99633891405215e+00 +8.08080616908509e+01 -2.67147415300428e-16 +6.71210363505084e+03 +0.00000000000000e+00 +0.00000000000000e+00 +2.82221248725086e-03 +3.35640170561518e+07 +4.00587706753314e-02 +9.22519072499642e-04 +6.77849831776023e-01 +4.78924395550806e-04 +2.28252816301430e-01 +1.61611652080287e-04 +5.05680313587057e-04 +9.15427433663147e-02 +1.34703542491079e-05 +3.89009764483063e-06 +7.21902672878203e-08 +2.68440480353060e-04
+8.48215658000000e-01 +0.00000000000000e+00 +3.67662657689088e+00 +8.23182698182090e+01 -6.07153216591882e-17 +6.71747813461241e+03 +0.00000000000000e+00 +0.00000000000000e+00 +2.81726620330731e-03 +3.36322491153306e+07 +4.07665702032441e-02 +9.30761480887664e-04 +6.79037561871588e-01 +4.86123344405025e-04 +2.28045215694036e-01 +1.63406739275847e-04 +5.01188863816836e-04 +9.05506568234396e-02 +1.35269017872977e-05 +3.85378534373039e-06 +7.22084303161548e-08 +2.67632286989989e-04
+8.46436691060000e-01 +0.00000000000000e+00 +3.34438310391710e+00 +8.38815145460828e+01 -9.80118763926896e-17 +6.72383716645760e+03 +0.00000000000000e+00 +0.00000000000000e+00 +2.81146800679459e-03 +3.37124414900660e+07 +4.14917030541001e-02 +9.40620305821661e-04 +6.80428162152911e-01 +4.94737784416011e-04 +2.27802026055439e-01 +1.65548549707063e-04 +4.95929176638007e-04 +8.93888305972702e-02 +1.35929769418876e-05 +3.81140609821534e-06 +7.22288926476285e-08 +2.66668765864766e-04
+8.44397194520000e-01 +0.00000000000000e+00 +3.01141965193299e+00 +8.54476757150281e+01 -1.56125112837913e-16 +6.73121367352991e+03 +0.00000000000000e+00 +0.00000000000000e+00 +2.80481288771937e-03 +3.38046986921275e+07 +4.22087539596822e-02 +9.52203612906216e-04 +6.82021130062495e-01 +5.04863480331189e-04 +2.27523266100541e-01 +1.68057438374427e-04 +4.89901870043752e-04 +8.80575317143130e-02 +1.36685125955623e-05 +3.76302679410120e-06 +7.22512567041627e-08 +2.65541930348954e-04
+8.42103091910000e-01 +0.00000000000000e+00 +2.68852752113652e+00 +8.69734805887991e+01 +1.00613961606655e-16 +6.73962507096237e+03 +0.00000000000000e+00 +0.00000000000000e+00 +2.79731258053356e-03 +3.39089037211683e+07 +4.28959432313343e-02 +9.65607248372756e-04 +6.83811467049139e-01 +5.16585710920096e-04 +2.27209728684135e-01 +1.70950604053893e-04 +4.83124196754767e-04 +8.65607567151501e-02 +1.37531839168593e-05 +3.70885807477173e-06 +7.22749720575075e-08 +2.64245474510382e-04
+8.39565269290000e-01 +0.00000000000000e+00 +2.38425161824984e+00 +8.84267898370961e+01 +1.24466409401336e-16 +6.74907498060353e+03 +0.00000000000000e+00 +0.00000000000000e+00 +2.78899359149413e-03 +3.40247198939261e+07 +4.35372471455064e-02 +9.80917520144885e-04 +6.85790020572462e-01 +5.29981309060721e-04 +2.26862920882075e-01 +1.74242487357280e-04 +4.75628521803448e-04 +8.49059457477779e-02 +1.38464466840699e-05 +3.64923559101965e-06 +7.22993751127578e-08 +2.62774977668148e-04
+8.36798099320000e-01 +0.00000000000000e+00 +2.10436677272165e+00 +8.97876861110341e+01 +8.76035355368288e-17 +6.75955782596829e+03 +0.00000000000000e+00 +0.00000000000000e+00 +2.77989236132950e-03 +3.41516547847625e+07 +4.41228880920544e-02 +9.98217887411673e-04 +6.87944684070124e-01 +5.45124340755143e-04 +2.26484855250004e-01 +1.77946218543130e-04 +4.67457727195998e-04 +8.31029825984393e-02 +1.39475938045549e-05 +3.58457941291260e-06 +7.23237279311251e-08 +2.61127410581294e-04
+8.33817880950000e-01 +0.00000000000000e+00 +1.85193718645660e+00 +9.10474436705496e+01 +8.45677694538693e-17 +6.77106391010254e+03 +0.00000000000000e+00 +0.00000000000000e+00 +2.77005029889205e-03 +3.42891282941598e+07 +4.46487549491699e-02 +1.01759680448561e-03 +6.90261653724298e-01 +5.62092798286465e-04 +2.26077830659873e-01 +1.82075294079940e-04 +4.58660418601627e-04 +8.11631462357550e-02 +1.40558148903755e-05 +3.51535250121974e-06 +7.23472570761462e-08 +2.59300549972067e-04
+8.30641348170000e-01 +0.00000000000000e+00 +1.62772945332353e+00 +9.22061740929870e+01 +4.81385764583564e-17 +6.78358469677035e+03 +0.00000000000000e+00 +0.00000000000000e+00 +2.75950899283057e-03 +3.44365397447688e+07 +4.51151609963516e-02 +1.03915668580401e-03 +6.92726636762418e-01 +5.80976287409617e-04 +2.25644220685738e-01 +1.86645454445683e-04 +4.49286318635885e-04 +7.90981008398960e-02 +1.41702533036210e-05 +3.44202170378443e-06 +7.23691872014539e-08 +2.57292321458141e-04