TITLE = "Electromagnetic Field"
VARIABLES = X Y E ER EI EvR EvI EvR' EvI' Ev EvPhase EpR EpI Ep EpPhase EpToEvPhaseShift elConductivity Jr Ji J Jphase QJ
ZONE N=289, E=255, F=FEPOINT, ET=QUADRILATERAL
0.00039580502241 0.071890150747 140.480830142 -36.0408126362 -135.778950732 0 -183.557254743 0 -182.920909222 183.557254743 -90 -36.0408126362 47.7783040106 59.8473600889 127.028502341 -142.971497659 9.50784245523e-06 -1.69349561396e-11 -6.38001867087e-11 6.60095187342e-11 -104.865641641 0.0938179871696
0.00039580502241 0.07244443504 140.997070566 -35.9553518731 -136.335344398 0 -184.005801194 0 -184.000195246 184.005801194 -90 -35.9553518731 47.6704567958 59.7097964526 127.02534671 -142.97465329 6.43946512984e-06 -1.10879162144e-11 -4.18719909474e-11 4.33152252377e-11 -104.774470496 0.0637417642008
0.00039580502241 0.072906338616 142.044573124 -35.7819008862 -137.463724032 0 -184.915754331 0 -184.894139845 184.915754331 -90 -35.7819008862 47.4520302983 59.430965173 127.018650008 -142.981349992 1.81188050262e-06 -2.59793515535e-12 -9.94440167737e-12 1.02781564369e-11 -104.590621054 0.0182100448055
0.00039580502241 0.073291258264 142.913332709 -35.6379874674 -138.398434712 0 -185.670081496 0 -185.635286696 185.670081496 -90 -35.6379874674 47.2716467841 59.2002934883 127.012552704 -142.987447296 4.32896795266e-07 -5.17146481307e-13 -2.00190587374e-12 2.06762428655e-12 -104.440298613 0.00440593689734
0.00039580502241 0.073612024636 143.634380185 -35.5185381907 -139.173451756 0 -186.295923265 0 -186.250256754 186.295923265 -90 -35.5185381907 47.1224715092 59.0092694668 127.00713739 -142.99286261 8.68344621483e-08 -8.64980742221e-14 -3.37975601126e-13 3.48868837866e-13 -104.317003741 0.000893051719826
0.00039580502241 0.073879329947 144.233209083 -35.4193511281 -139.816577041 0 -186.815533189 0 -186.760885014 186.815533189 -90 -35.4193511281 46.9989561484 58.8509330288 127.002405685 -142.997594315 1.4126627861e-08 -1.17456894471e-14 -4.62505116764e-14 4.77186701247e-14 -104.215610879 0.000146546178461
0.00039580502241 0.074102084372 144.730804165 -35.3369524999 -140.350620174 0 -187.247201705 0 -187.185123261 187.247201705 -90 -35.3369524999 46.8965815308 58.7195842536 126.998317671 -143.001682329 1.73948043053e-09 -1.20835544862e-15 -4.78876118228e-15 4.93886209092e-15 -104.13204578 1.81746934632e-05
0.00039580502241 0.07428771306 145.144468967 -35.268471744 -140.794338214 0 -187.605993342 0 -187.537760951 187.605993342 -90 -35.268471744 46.8116551287 58.6105464717 126.994814242 -143.005185758 1.38190562623e-10 -8.07290772713e-17 -3.21605267992e-16 3.31582768426e-16 -104.063047126 1.45223041647e-06
0.00039580502241 0.074442403634 145.488493662 -35.2115360798 -141.163186835 0 -187.904338065 0 -187.831003807 187.904338065 -90 -35.2115360798 46.7411512303 58.5199751653 126.991829676 -143.008170324 1.12495454432e-16 -5.4666386671e-23 -2.18778820393e-22 2.25505179755e-22 -104.005988346 1.18828787847e-12
0.00039580502241 0.074571312445 145.774695826 -35.1641829317 -141.469923619 0 -188.152507879 0 -188.074940454 188.152507879 -90 -35.1641829317 46.6825842597 58.4447040867 126.989298559 -143.010701441 4.76571935122e-20 -1.92708834235e-26 -7.74177525829e-26 7.97801689888e-26 -103.958742893 5.05550698098e-16
0.00039580502241 0.074678736454 146.012859745 -35.1247877413 -141.725094816 0 -188.359002679 0 -188.27792041 188.359002679 -90 -35.1247877413 46.6339078625 58.3821212133 126.98715942 -143.01284058 1.90782741574e-23 -6.42136592781e-30 -2.5878600537e-29 2.6663381371e-29 -103.919581255 2.03100466644e-19
0.00039580502241 0.074768256462 146.211094444 -35.092004658 -141.937429765 0 -188.530863863 0 -188.446861459 188.530863863 -90 -35.092004658 46.593434098 58.3300685123 126.985356428 -143.014643572 3.42729824715e-28 -9.60331678656e-35 -3.8804111678e-34 3.99747767526e-34 -103.887091392 3.65931745671e-24
0.00039580502241 0.074842856468 146.308525765 -35.0758939164 -142.041776874 0 -188.615329185 0 -188.587500483 188.615329185 -90 -35.0758939164 46.5735523104 58.3044947568 126.984464475 -143.015535525 9.26967043988e-35 -2.16265307511e-41 -8.75778351603e-41 9.02085585944e-41 -103.871150268 9.92141388258e-31
0.0004849660269 0.071890150747 140.559540868 -36.0780997396 -135.850487625 0 -183.672347967 0 -183.112091383 183.672347967 -90 -36.0780997396 47.8218603426 59.9045876195 127.031883076 -142.968116924 5.43007270694e-05 -1.1472479239e-10 -4.31835737908e-10 4.46815267408e-10 -104.872847593 0.536822406574
0.0004849660269 0.07244443504 141.07621954 -35.9923247422 -136.407445928 0 -184.121143749 0 -184.192379003 184.121143749 -90 -35.9923247422 47.7136978211 59.7665828334 127.028679686 -142.971320314 3.8424542951e-05 -7.80392051703e-11 -2.94581282465e-10 3.04743224478e-10 -104.781520126 0.381285594252
0.0004849660269 0.072906338616 142.124609148 -35.8182416677 -137.536965123 0 -185.031601945 0 -185.087149949 185.031601945 -90 -35.8182416677 47.4946368219 59.4868639589 127.021887069 -142.978112931 1.31703609027e-05 -2.23539202488e-11 -8.55193125691e-11 8.83926450767e-11 -104.597358464 0.132672119842
0.0004849660269 0.073291258264 142.994100252 -35.6738144658 -138.472609358 0 -185.786346362 0 -185.828979615 185.786346362 -90 -35.6738144658 47.3137370036 59.2554703433 127.015712127 -142.984287873 3.7466770127e-06 -5.31508792144e-12 -2.05614713164e-11 2.123733901e-11 -104.446786388 0.0382159854356
0.0004849660269 0.073612024636 143.715751959 -35.5539459637 -139.248393367 0 -186.412533309 0 -186.444514636 186.412533309 -90 -35.5539459637 47.1641399416 59.0638568444 127.010233745 -142.989766255 8.6202459082e-07 -1.02250698484e-12 -3.99230775797e-12 4.12117072791e-12 -104.323290581 0.00888392485427
0.0004849660269 0.073879329947 144.315080642 -35.4544156789 -139.892150254 0 -186.932429116 0 -186.955610876 186.932429116 -90 -35.4544156789 47.0402788621 58.905037474 127.005450623 -142.994549377 1.52538974434e-07 -1.51329133419e-13 -5.95414872782e-13 6.14344732859e-13 -104.221735058 0.001585585522
0.0004849660269 0.074102084372 144.813089608 -35.3717352419 -140.426714551 0 -187.364334638 0 -187.380237141 187.364334638 -90 -35.3717352419 46.9376200877 58.7732919375 127.001320553 -142.998679447 1.91983580654e-08 -1.5930006632e-14 -6.30807227516e-14 6.50610718228e-14 -104.138037648 0.000200988173603
0.0004849660269 0.07428771306 145.227097503 -35.303022536 -140.870863339 0 -187.723322926 0 -187.733196811 187.723322926 -90 -35.303022536 46.8524595864 58.6639274162 126.997782624 -143.002217376 1.5003703685e-09 -1.04082597896e-15 -4.1436840956e-15 4.27240414294e-15 -104.068930936 1.58012714546e-05
0.0004849660269 0.074442403634 145.571406852 -35.2458955659 -141.240068474 0 -188.021830928 0 -188.026707033 188.021830928 -90 -35.2458955659 46.7817624534 58.5730864986 126.994769686 -143.005230314 5.53294295599e-11 -3.23240660785e-17 -1.29260543917e-16 1.33240885097e-16 -104.011783607 5.85664459086e-07
0.0004849660269 0.074571312445 145.85784536 -35.1983843605 -141.547100674 0 -188.270136393 0 -188.270865822 188.270136393 -90 -35.1983843605 46.7230357192 58.497592576 126.992215187 -143.007784813 2.58397887897e-18 -1.25436681852e-24 -5.03529216186e-24 5.18918136876e-24 -103.964465387 2.74678530787e-14
0.0004849660269 0.074678736454 146.096205634 -35.1588583922 -141.802516898 0 -188.476743948 0 -188.474030435 188.476743948 -90 -35.1588583922 46.6742270502 58.4348252537 126.990056744 -143.009943256 2.22790702533e-22 -8.95545909234e-29 -3.60640295575e-28 3.71593121159e-28 -103.925243809 2.37652177212e-18
0.0004849660269 0.074768256462 146.294603552 -35.1259669698 -142.015055246 0 -188.648698895 0 -188.643125045 188.648698895 -90 -35.1259669698 46.6336436482 58.3826197027 126.988237794 -143.011762206 2.05021347011e-27 -6.81766690153e-34 -2.75282237427e-33 2.83598957328e-33 -103.892704474 2.19324474059e-23
0.0004849660269 0.074842856468 146.39211504 -35.1098031122 -142.119502185 0 -188.733210277 0 -188.783891815 188.733210277 -90 -35.1098031122 46.6137080915 58.3569709954 126.987338025 -143.012661975 3.21920286209e-34 -8.82992073838e-41 -3.57328558456e-40 3.68076689213e-40 -103.876739143 3.45181900475e-30
0.00059195923227 0.071890150747 140.719778459 -36.1539780709 -135.996123271 0 -183.906589303 0 -183.341839794 183.906589303 -90 -36.1539780709 47.9104660324 60.021020492 127.038764615 -142.961235385 0.000307961711078 -7.75097516384e-10 -2.91449277816e-09 3.01579912869e-09 -104.887485731 3.05153957343
0.00059195923227 0.07244443504 141.237349049 -36.0675618491 -136.554231351 0 -184.355892524 0 -184.423331041 184.355892524 -90 -36.0675618491 47.8016611731 59.8821163415 127.035463429 -142.964536571 0.000228784614186 -5.501304309e-10 -2.07545400863e-09 2.14712903478e-09 -104.795839832 2.27681328888
0.00059195923227 0.072906338616 142.287543972 -35.8921890655 -137.686070983 0 -185.26737862 0 -185.31909501 185.26737862 -90 -35.8921890655 47.5813076375 59.6005880672 127.028474456 -142.971525544 9.4946063796e-05 -1.91140427906e-10 -7.30766854802e-10 7.55351323642e-10 -104.611042233 0.95911438552
0.00059195923227 0.073291258264 143.158523837 -35.7467137745 -138.623616058 0 -186.02297223 0 -186.061745215 186.02297223 -90 -35.7467137745 47.3993561725 59.3677229943 127.022140665 -142.977859335 3.26172855991e-05 -5.50419858261e-11 -2.12765294788e-10 2.19769716061e-10 -104.4599618 0.333576448007
0.00059195923227 0.073612024636 143.881405244 -35.6259902259 -139.40096163 0 -186.649861683 0 -186.67795915 186.649861683 -90 -35.6259902259 47.2489000532 59.1749081561 127.016533304 -142.983466696 8.7856841744e-06 -1.24328305504e-11 -4.85007037753e-11 5.00688984164e-11 -104.336056874 0.09077304275
0.00059195923227 0.073879329947 144.481751057 -35.5257600067 -140.046004429 0 -187.170339319 0 -187.189617759 187.170339319 -90 -35.5257600067 47.1243348901 59.0151046771 127.011645068 -142.988354932 1.73117854124e-06 -2.05414996988e-12 -8.07460754292e-12 8.33179652149e-12 -104.234170206 0.0180388712872
0.00059195923227 0.074102084372 144.98060233 -35.4425049379 -140.581629761 0 -187.602727196 0 -187.614710301 187.602727196 -90 -35.4425049379 47.0210974347 58.8825506886 127.007429046 -142.992570954 2.25516305188e-07 -2.24144352448e-13 -8.86727560218e-13 9.14618241881e-13 -104.150203464 0.0023665975582
0.00059195923227 0.07428771306 145.395308464 -35.3733193059 -141.026655494 0 -187.962115702 0 -187.968056891 187.962115702 -90 -35.3733193059 46.9354602086 58.7725204299 127.003820625 -142.996179375 1.65776034667e-08 -1.37668907635e-14 -5.47563304708e-14 5.6460456091e-14 -104.080876807 0.000175006742301
0.00059195923227 0.074442403634 145.740197126 -35.3158023043 -141.396586432 0 -188.260956008 0 -188.2618884 188.260956008 -90 -35.3158023043 46.8643695762 58.6811301961 127.000749726 -142.999250274 5.44106914541e-10 -3.76810785414e-16 -1.50550029146e-15 1.55193991622e-15 -104.023549253 5.77262916849e-06
0.00059195923227 0.074571312445 146.027116628 -35.2679688697 -141.704220044 0 -188.50953755 0 -188.506314134 188.50953755 -90 -35.2679688697 46.8053175063 58.6051822555 126.998147469 -143.001852531 1.10964308977e-16 -6.46599984913e-23 -2.59317732656e-22 2.67257557293e-22 -103.976082936 1.18248483702e-12
0.00059195923227 0.074678736454 146.265876515 -35.2281762975 -141.960135095 0 -188.716374582 0 -188.709700647 188.716374582 -90 -35.2281762975 46.7562394876 58.5420391499 126.995949604 -143.004050396 2.09988186258e-21 -1.00712668485e-27 -4.05213841619e-27 4.17541973439e-27 -103.936739372 2.24529355602e-17
0.00059195923227 0.074768256462 146.46460661 -35.1950640235 -142.173087521 0 -188.888520352 0 -188.878979788 188.888520352 -90 -35.1950640235 46.715432831 58.4895222012 126.994098063 -143.005901937 1.08379251196e-26 -4.28236861921e-33 -1.72764108096e-32 1.77992430473e-32 -103.90409936 1.16207949614e-22
0.00059195923227 0.074842856468 146.562281249 -35.1787918899 -142.27773769 0 -188.973125476 0 -189.019900067 188.973125476 -90 -35.1787918899 46.6953877859 58.4637207987 126.993182335 -143.006817665 1.15113202169e-33 -3.74995899285e-40 -1.51625058853e-39 1.56193398957e-39 -103.888084766 1.23712856165e-29
0.00072035107873 0.071225009597 139.628475452 -36.5224510321 -134.767287306 0 -183.130241791 0 -182.309045928 183.130241791 -90 -36.5224510321 48.3629544849 60.6041648396 127.059157841 -142.940842159 0.00296456181476 -1.10956547156e-08 -4.09427966812e-08 4.2419643488e-08 -105.163168827 28.8987133364
0.00072035107873 0.071890150747 140.404535701 -36.3548636607 -135.615860851 0 -183.769652658 0 -183.618013689 183.769652658 -90 -36.3548636607 48.1537918073 60.3362563429 127.051833195 -142.948166805 0.00186828897589 -6.47469094201e-09 -2.40281415315e-08 2.488525379e-08 -105.007144267 18.342807767
0.00072035107873 0.07244443504 141.431145148 -36.1579792205 -136.730782437 0 -184.638089349 0 -184.700951759 184.638089349 -90 -36.1579792205 47.9073069118 60.0209093023 127.043618776 -142.956381224 0.000888745962769 -2.53302224877e-09 -9.54799736956e-09 9.87829392948e-09 -104.812989785 8.87281266515
0.00072035107873 0.072906338616 142.483510168 -35.9810486236 -137.865414147 0 -185.550811081 0 -185.597909387 185.550811081 -90 -35.9810486236 47.6853969343 59.7371992426 127.03639115 -142.96360885 0.000423945061102 -1.01126237256e-09 -3.86287900725e-09 3.99305765211e-09 -104.627426595 4.29604098637
0.00072035107873 0.073291258264 143.356279578 -35.834307905 -138.805246145 0 -186.307425501 0 -186.341545913 186.307425501 -90 -35.834307905 47.5021793554 59.5025604089 127.029864501 -142.970135499 0.000169860280879 -3.40002509097e-10 -1.31306563985e-09 1.35637188042e-09 -104.475734406 1.74250488139
0.00072035107873 0.073612024636 144.080639104 -35.7125523496 -139.584470277 0 -186.935159427 0 -186.958575927 186.935159427 -90 -35.7125523496 47.3506891504 59.3082977648 127.024100681 -142.975899319 5.33014571367e-05 -8.97128211712e-11 -3.49615809119e-10 3.60942745126e-10 -104.351337303 0.552345447394
0.00072035107873 0.073879329947 144.682207511 -35.6114775615 -140.231059917 0 -187.45633647 0 -187.470910522 187.45633647 -90 -35.6114775615 47.2252765526 59.1473084962 127.019085026 -142.980914974 1.1846328303e-05 -1.67717730986e-11 -6.5855414556e-11 6.79575530318e-11 -104.24905236 0.123794222784
0.00072035107873 0.074102084372 145.182071235 -35.5275292624 -140.767961516 0 -187.889304175 0 -187.896563543 187.889304175 -90 -35.5275292624 47.1213426593 59.0137805111 127.01476487 -142.98523513 1.61973773822e-06 -1.92449144226e-12 -7.60482184436e-12 7.84455147776e-12 -104.164761753 0.0170459513024
0.00072035107873 0.07428771306 145.59761665 -35.4577731885 -141.214042042 0 -188.249173777 0 -188.25037522 188.249173777 -90 -35.4577731885 47.0351317357 58.9029482794 127.011071083 -142.988928917 1.12931705788e-07 -1.12116971125e-13 -4.45437400563e-13 4.59330707842e-13 -104.095170657 0.00119557326216
0.00072035107873 0.074442403634 145.943201645 -35.3997857912 -141.584845956 0 -188.548413537 0 -188.544592926 188.548413537 -90 -35.3997857912 46.9635675817 58.8108963712 127.007930021 -142.992069979 3.13552225664e-09 -2.5885747627e-15 -1.03314173296e-14 1.06507701393e-14 -104.037626446 3.33608426438e-05
0.00072035107873 0.074571312445 146.230699305 -35.3515637728 -141.893202914 0 -188.797326944 0 -188.789339532 188.797326944 -90 -35.3515637728 46.9041240294 58.7344015816 127.005269968 -142.994730032 2.10624222009e-11 -1.48137860327e-17 -5.93429071217e-17 6.11639508393e-17 -103.989982111 2.25139028163e-07
0.00072035107873 0.074678736454 146.469939528 -35.3114497237 -142.149717915 0 -189.004439824 0 -188.992992773 189.004439824 -90 -35.3114497237 46.8547219088 58.6708058838 127.003024406 -142.996975594 1.02382943715e-20 -5.8351292068e-27 -2.34532578143e-26 2.4168244445e-26 -103.950491928 1.09775167671e-16
0.00072035107873 0.074768256462 146.669068896 -35.2780711622 -142.36316835 0 -189.176814977 0 -189.162493725 189.176814977 -90 -35.2780711622 46.813646627 58.6179139107 127.001133441 -142.998866559 3.33031211594e-26 -1.55946237353e-32 -6.28508498442e-32 6.47566341029e-32 -103.917730917 3.58047942309e-22
0.00072035107873 0.074842856468 146.766939639 -35.2616684829 -142.468062937 0 -189.261532784 0 -189.303598524 189.261532784 -90 -35.2616684829 46.7934698467 58.5919286201 127.000198407 -142.999801593 2.88284928415e-33 -1.11733678082e-39 -4.51328175687e-39 4.64953265934e-39 -103.90165712 3.10668163727e-29
0.00087442129448 0.071225009597 139.763465039 -36.5887129143 -134.889181892 0 -183.329114127 0 -182.639028702 183.329114127 -90 -36.5887129143 48.4399322355 60.7055267886 127.06527298 -142.93472702 0.00539522192734 -2.32834220044e-08 -8.58035820721e-08 8.89065389825e-08 -105.176305762 52.7329167671
0.00087442129448 0.071890150747 140.391165715 -36.4823872002 -135.567771536 0 -183.873515866 0 -183.95010901 183.873515866 -90 -36.4823872002 48.3057443302 60.5343667984 127.061508313 -142.938491687 0.00441730048142 -1.7979049192e-08 -6.65979084419e-08 6.89822203996e-08 -105.062535334 43.4615378654
0.00087442129448 0.07244443504 141.664338484 -36.2666683473 -136.943236477 0 -184.977444698 0 -185.034786834 184.977444698 -90 -36.2666683473 48.0342082212 60.1876768129 127.053425641 -142.946574359 0.00257043569062 -8.71794978991e-09 -3.28210214649e-08 3.39591671555e-08 -104.833519547 25.7538635756
0.00087442129448 0.072906338616 142.719312934 -36.0878537111 -138.081229519 0 -185.891652311 0 -185.933179788 185.891652311 -90 -36.0878537111 47.8104227912 59.9013335034 127.045907258 -142.954092742 0.00133783924989 -3.79178211605e-09 -1.44667858617e-08 1.4955462535e-08 -104.647034133 13.6053010819
0.00087442129448 0.073291258264 143.594234126 -35.939583371 -139.023814297 0 -186.649494268 0 -186.678002318 186.649494268 -90 -35.939583371 47.6256799701 59.664554665 127.039145957 -142.960854043 0.000594117733936 -1.41178579118e-09 -5.4457578879e-09 5.6257842253e-09 -104.494605388 6.11626126424
0.00087442129448 0.073612024636 144.320370936 -35.8165808648 -139.805299403 0 -187.278243682 0 -187.296013624 187.278243682 -90 -35.8165808648 47.4729442792 59.4685457815 127.033191976 -142.966808024 0.000208867400925 -4.17576479453e-10 -1.6253368313e-09 1.67812138935e-09 -104.369615934 2.17193676848
0.00087442129448 0.073879329947 144.923409365 -35.7144859343 -140.453750608 0 -187.800261764 0 -187.809161051 187.800261764 -90 -35.7144859343 47.3465111557 59.306126623 127.028021584 -142.971978416 5.16603267984e-05 -8.70787503072e-11 -3.41482050951e-10 3.52409888966e-10 -104.266851803 0.541681452571
0.00087442129448 0.074102084372 145.424490426 -35.6297005056 -140.992188043 0 -188.233926713 0 -188.235488014 188.233926713 -90 -35.6297005056 47.2417386705 59.1714243462 127.023575051 -142.976424949 7.50111755123e-06 -1.06347909161e-11 -4.19691564654e-11 4.32956007213e-11 -104.182171629 0.0792052854363
0.00087442129448 0.07428771306 145.84104496 -35.5592557166 -141.439537822 0 -188.59437483 0 -188.589858928 188.59437483 -90 -35.5592557166 47.1548370085 59.0596253541 127.019777721 -142.980222279 5.01534429565e-07 -5.942169027e-13 -2.35773953831e-12 2.43146656337e-12 -104.112262511 0.00532733726398
0.00087442129448 0.074442403634 146.187467195 -35.5007004845 -141.811392163 0 -188.894094931 0 -188.884541009 188.894094931 -90 -35.5007004845 47.0827027682 58.9667758994 127.01655159 -142.98344841 1.17469741765e-08 -1.15513394495e-14 -4.60452562723e-14 4.74720876749e-14 -104.054457781 0.000125398976934
0.00087442129448 0.074571312445 146.475660001 -35.452009451 -142.120619474 0 -189.143407402 0 -189.129673442 189.143407402 -90 -35.452009451 47.0227879274 58.8896220281 127.013821487 -142.986178513 7.29334713781e-11 -5.92302539556e-17 -2.37020522177e-16 2.44309131827e-16 -104.006599416 7.81743735814e-07
0.00087442129448 0.074678736454 146.71547775 -35.4115074275 -142.377856328 0 -189.350851986 0 -189.333647404 189.350851986 -90 -35.4115074275 46.9729956578 58.8254808954 127.01151813 -142.98848187 2.93649075335e-20 -1.9832828338e-26 -7.96193750337e-26 8.20523373822e-26 -103.966932973 3.1586301531e-16
0.00087442129448 0.074768256462 146.91508717 -35.3778075284 -142.591905939 0 -189.523502968 0 -189.503415067 189.523502968 -90 -35.3778075284 46.9315970295 58.7721370025 127.009579404 -142.990420596 6.75288242008e-26 -3.7494325318e-32 -1.50935682033e-31 1.55523004737e-31 -103.934026517 7.28328667721e-22
0.00087442129448 0.074842856468 147.013193689 -35.3612473239 -142.697094592 0 -189.608356277 0 -189.644741737 189.608356277 -90 -35.3612473239 46.9112616844 58.7459301294 127.008620985 -142.991379015 5.56529383742e-33 -2.57219394462e-39 -1.0377469323e-38 1.06914944413e-38 -103.917881561 6.01710504994e-29
0.0010593055534 0.070426840216 138.497556252 -37.0779765599 -133.442110078 0 -182.480640509 0 -181.446053272 182.480640509 -90 -37.0779765599 49.0385304314 61.4780758698 127.092884359 -142.907115641 0.0242522305832 -1.59236990308e-07 -5.73087367775e-07 5.94798747633e-07 -105.528385517 232.597966736
0.0010593055534 0.071225009597 139.428909345 -36.8638169577 -134.466834015 0 -183.238250776 0 -183.035993112 183.238250776 -90 -36.8638169577 48.7714167615 61.1358502607 127.083726768 -142.916273232 0.0169636875482 -1.01122522655e-07 -3.66960750961e-07 3.8064027863e-07 -105.331709609 164.331428041
0.0010593055534 0.071890150747 140.668108708 -36.6159054878 -135.818615158 0 -184.279613484 0 -184.349614754 184.279613484 -90 -36.6159054878 48.4609983259 60.7387270515 127.073746891 -142.926253109 0.0100939648514 -4.91718631983e-08 -1.81827937691e-07 1.88359809565e-07 -105.088499935 99.7228985891
0.0010593055534 0.07244443504 141.945095201 -36.3973609868 -137.199042563 0 -185.385709512 0 -185.436385437 185.385709512 -90 -36.3973609868 48.1866669492 60.3881016599 127.065221601 -142.934778399 0.00608402898515 -2.46601148354e-08 -9.26874129916e-08 9.59119496192e-08 -104.858080043 61.2087875151
0.0010593055534 0.072906338616 143.003208539 -36.2162643565 -138.341084726 0 -186.301704682 0 -186.336505023 186.301704682 -90 -36.2162643565 47.9606199551 60.0985767501 127.057347993 -142.942652007 0.00331212777295 -1.12003069214e-08 -4.26654728444e-08 4.41111401464e-08 -104.670482969 33.821766363
0.0010593055534 0.073291258264 143.880718036 -36.0661425102 -139.286984954 0 -187.061023393 0 -187.082754252 187.061023393 -90 -36.0661425102 47.7740384393 59.8592134556 127.050300488 -142.949699512 0.00155658085024 -4.4060653903e-09 -1.69699303512e-08 1.75326056127e-08 -104.517166912 16.0902861861
0.0010593055534 0.073612024636 144.60899263 -35.9416314235 -140.071192795 0 -187.690994454 0 -187.701945991 187.690994454 -90 -35.9416314235 47.619801659 59.6610964179 127.044114864 -142.955885136 0.000586087987236 -1.3943327952e-09 -5.41903607577e-09 5.59554588092e-09 -104.39146421 6.11931568669
0.0010593055534 0.073879329947 145.213799222 -35.8383028022 -140.721885513 0 -188.214024314 0 -188.216071204 188.214024314 -90 -35.8383028022 47.4921388012 59.4969515036 127.038756174 -142.961243826 0.000156086512918 -3.13221521973e-10 -1.22644250729e-09 1.26580779486e-09 -104.288123311 1.6431955887
0.0010593055534 0.074102084372 145.716344495 -35.7525053239 -141.262172093 0 -188.648528051 0 -188.64320887 188.648528051 -90 -35.7525053239 47.3863559582 59.360832268 127.034155979 -142.965844021 2.39096960209e-05 -4.04186372886e-11 -1.59262082776e-10 1.64310924614e-10 -104.202974383 0.25346604752
0.0010593055534 0.07428771306 146.134112778 -35.6812281189 -141.711049949 0 -189.009672121 0 -188.998252506 189.009672121 -90 -35.6812281189 47.2986221723 59.2478669388 127.030232827 -142.969767173 1.54037317671e-06 -2.17608569173e-12 -8.62116596323e-12 8.89156086967e-12 -104.132682688 0.0164266941342
0.0010593055534 0.074442403634 146.481542019 -35.6219867104 -142.084168849 0 -189.309970071 0 -189.293493193 189.309970071 -90 -35.6219867104 47.2258012228 59.1540554308 127.026903377 -142.973096623 3.05811293489e-08 -3.58076948454e-14 -1.42523393541e-13 1.46952745212e-13 -104.074564621 0.000327735810515
0.0010593055534 0.074571312445 146.770570913 -35.5727290094 -142.394443882 0 -189.559762612 0 -189.539089744 189.559762612 -90 -35.5727290094 47.1653187306 59.0761066285 127.024088228 -142.975911772 1.47863619586e-10 -1.42782613533e-16 -5.7054857742e-16 5.88143318973e-16 -104.026448875 1.59102967546e-06
0.0010593055534 0.074678736454 147.011083266 -35.5317582975 -142.652549656 0 -189.767606234 0 -189.743449508 189.767606234 -90 -35.5317582975 47.1150565777 59.0113077068 127.021714724 -142.978285276 5.48283765298e-20 -4.38693401764e-26 -1.758689514e-25 1.81257849546e-25 -103.986570502 5.91992723251e-16
0.0010593055534 0.074768256462 147.211270045 -35.4976702566 -142.867320486 0 -189.940589037 0 -189.913538 189.940589037 -90 -35.4976702566 47.0732685509 58.957418856 127.019718042 -142.980281958 9.8846843678e-26 -6.52157082881e-32 -2.62164462138e-31 2.70154207917e-31 -103.953489188 1.07017438777e-21
0.0010593055534 0.074842856468 147.309660128 -35.4809197906 -142.972863092 0 -190.025605351 0 -190.055131563 190.025605351 -90 -35.4809197906 47.0527422586 58.9309447967 127.01873125 -142.98126875 8.7982194771e-33 -4.85909520513e-39 -1.95759268466e-38 2.01699709938e-38 -103.937258687 9.55007669135e-29
0.001281166664 0.06946903696 136.813670887 -37.6124580308 -131.541945943 0 -181.240628637 0 -179.988213144 181.240628637 -90 -37.6124580308 49.698682694 62.3270090783 127.118798907 -142.881201093 0.0702492031862 -6.7377028997e-07 -2.35637498056e-06 2.45080995849e-06 -105.957091519 657.461609148
0.001281166664 0.070426840216 137.94764326 -37.3490820261 -132.794452386 0 -182.162984276 0 -181.920111654 182.162984276 -90 -37.3490820261 49.3685318903 61.9048140041 127.108768723 -142.891231277 0.0504791573123 -4.37175325953e-07 -1.54513529797e-06 1.60580063351e-06 -105.710208976 478.476573997
0.001281166664 0.071225009597 139.453531263 -37.0445526696 -134.442708567 0 -183.428050645 0 -183.513773367 183.428050645 -90 -37.0445526696 48.9853420775 61.4154925571 127.097902176 -142.902097824 0.0317983455763 -2.24375799891e-07 -8.11492428279e-07 8.41943668483e-07 -105.406008741 308.725525186
0.001281166664 0.071890150747 141.001769036 -36.776541408 -136.120852312 0 -184.768422857 0 -184.830453689 184.768422857 -90 -36.776541408 48.6475705456 60.984425997 127.088482684 -142.911517316 0.0206547460328 -1.20833171971e-07 -4.45838266714e-07 4.61923498841e-07 -105.119554372 205.041079459
0.001281166664 0.07244443504 142.283345253 -36.5545648405 -137.507263592 0 -185.877127437 0 -185.919743254 185.877127437 -90 -36.5545648405 48.3698638444 60.6290361598 127.079413487 -142.920586513 0.012528629183 -6.09060767962e-08 -2.2844586509e-07 2.36425918895e-07 -104.887439029 126.654145151
0.001281166664 0.072906338616 143.345236012 -36.3706993592 -138.654186889 0 -186.795274184 0 -186.821940927 186.795274184 -90 -36.3706993592 48.1410872943 60.3356622206 127.071104509 -142.928895491 0.0069027220404 -2.79557557098e-08 -1.06281063777e-07 1.09896358407e-07 -104.698500919 70.8279208405
0.001281166664 0.073291258264 144.225860239 -36.2183328276 -139.60408293 0 -187.556370364 0 -187.569907248 187.556370364 -90 -36.2183328276 47.9522874342 60.0931740995 127.063706946 -142.936293054 0.0033080087474 -1.11963639663e-08 -4.30405810233e-08 4.44730511729e-08 -104.544115282 34.3599042181
0.001281166664 0.073612024636 144.956707335 -36.0919939628 -140.391571672 0 -188.187811828 0 -188.19051968 188.187811828 -90 -36.0919939628 47.7962401558 59.8925092608 127.05723845 -142.94276155 0.00128249108188 -3.64263560558e-09 -1.41308542476e-08 1.45928052647e-08 -104.417553338 13.4548938017
0.001281166664 0.073879329947 145.563641595 -35.987171354 -141.044965053 0 -188.712059482 0 -188.705821684 188.712059482 -90 -35.987171354 47.6670944294 59.7262794166 127.0516501 -142.9483499 0.000354704816385 -8.49113678208e-10 -3.31870761923e-09 3.42561202805e-09 -104.313517941 3.75195947085
0.001281166664 0.074102084372 146.067948743 -35.9001487681 -141.587479318 0 -189.147572793 0 -189.13393505 189.147572793 -90 -35.9001487681 47.5600934753 59.5884487865 127.046862667 -142.953137333 5.60903929251e-05 -1.1314433052e-10 -4.45012554705e-10 4.59170815323e-10 -104.227804787 0.597420552305
0.001281166664 0.07428771306 146.487177496 -35.8278642157 -142.038197906 0 -189.509554518 0 -189.489788316 189.509554518 -90 -35.8278642157 47.4713566116 59.474075073 127.042786318 -142.957213682 3.47468405399e-06 -5.85570430211e-12 -2.31574975024e-11 2.38863767577e-11 -104.157052737 0.0372289634028
0.001281166664 0.074442403634 146.835818411 -35.7677926382 -142.412839989 0 -189.810547968 0 -189.785701293 189.810547968 -90 -35.7677926382 47.3977079786 59.3791020697 127.039331142 -142.960668858 5.85137918363e-08 -8.16277393769e-14 -3.24332973809e-13 3.34447261463e-13 -104.098557722 0.000630017612245
0.001281166664 0.074571312445 147.125853301 -35.7178494955 -142.724376943 0 -190.060918321 0 -190.031856415 190.060918321 -90 -35.7178494955 47.3365413784 59.3001936872 127.036412549 -142.963587451 2.23559205112e-10 -2.57008342336e-16 -1.02524230555e-15 1.05696505301e-15 -104.050132409 2.41663573911e-06
0.001281166664 0.074678736454 147.367201396 -35.6763119542 -142.983529222 0 -190.269242222 0 -190.236680492 190.269242222 -90 -35.6763119542 47.2857129997 59.234600837 127.033953755 -142.966046245 7.20618398213e-20 -6.84312519132e-26 -2.73884535667e-25 2.82304053797e-25 -104.009999177 7.8157849942e-16
0.001281166664 0.074768256462 147.568082831 -35.6417545631 -143.199168625 0 -190.442624401 0 -190.407155105 190.442624401 -90 -35.6417545631 47.2434557762 59.1800543155 127.031886625 -142.968113375 1.10941335442e-25 -8.7172963795e-32 -3.49853002142e-31 3.60549933815e-31 -103.976707617 1.20661168309e-21
0.001281166664 0.074842856468 147.666814082 -35.6247740458 -143.30513749 0 -190.527836908 0 -190.549069873 190.527836908 -90 -35.6247740458 47.2226994178 59.1532578279 127.030865348 -142.969134652 1.17514220653e-32 -7.76459487906e-39 -3.12283695204e-38 3.21791864647e-38 -103.960374266 1.2816005051e-28