TITLE = "Electromagnetic Field"
VARIABLES = X Y E ER EI EvR EvI EvR' EvI' Ev EvPhase EpR EpI Ep EpPhase EpToEvPhaseShift elConductivity Jr Ji J Jphase QJ
ZONE N=280, E=246, F=FEPOINT, ET=QUADRILATERAL
0.44165819021 0.075 316.428671301 -47.9012743903 -312.781987866 0 -391.265592675 0 -416.356956989 391.265592675 -90 -47.9012743903 78.4836048089 91.9467689047 121.397169009 -148.602830991 8.54303684512e-46 -1.60509604083e-50 -1.04808303486e-49 1.06030249503e-49 -98.7069633889 4.27694769425e-41
0.45074364266 0.07490502314 278.605621115 -43.5463284511 -275.181411791 0 -345.731224312 0 -367.421415846 345.731224312 -90 -43.5463284511 70.5498125208 82.9069283492 121.684639623 -148.315360377 2.18394551254e-44 -4.47627000848e-49 -2.82868003872e-48 2.8638786101e-48 -98.99225596 8.47601179036e-40
0.45074364266 0.0749568287 278.687906725 -43.5371903897 -275.266165398 0 -345.802712203 0 -367.604644071 345.802712203 -90 -43.5371903897 70.5365468054 82.8908401637 121.684080767 -148.315919233 1.42022323897e-44 -2.83252433189e-49 -1.79023279976e-48 1.8125025325e-48 -98.9876784861 5.5131191917e-40
0.45074364266 0.075 291.38880683 -44.9784881309 -287.895700631 0 -361.061817938 0 -367.757209972 361.061817938 -90 -44.9784881309 73.1661173071 85.8858964302 121.587624086 -148.412375914 2.40055329756e-45 -4.1468570502e-50 -2.63486342711e-49 2.66729978653e-49 -98.8873994846 9.64980469053e-41
0.45982909511 0.07490502314 262.568865249 -41.5285901218 -259.263395464 0 -326.165930444 0 -325.382701787 326.165930444 -90 -41.5285901218 66.9025349802 78.7439958251 121.837296769 -148.162703231 3.30023448043e-44 -6.34480560647e-49 -3.94361810207e-48 3.99433955755e-48 -99.107312151 1.09487013869e-39
0.45982909511 0.0749568287 262.645964293 -41.5201495368 -259.342827117 0 -326.233311294 0 -325.543966605 326.233311294 -90 -41.5201495368 66.8904841772 78.7293055204 121.836699661 -148.163300339 2.15184876167e-44 -4.02375113595e-49 -2.50130527392e-48 2.53346750759e-48 -99.1027565389 7.13878600596e-40
0.45982909511 0.075 262.81552675 -41.5015879226 -259.517515854 0 -326.381498451 0 -325.678248042 326.381498451 -90 -41.5015879226 66.8639825968 78.6969995691 121.835386398 -148.164613602 4.89030451893e-45 -7.82574395245e-50 -4.86971936339e-49 4.93220833004e-49 -99.0927435427 1.62223809384e-40
0.46891454755 0.07490502314 232.762450893 -37.6714256161 -229.693417835 0 -289.642897983 0 -288.968380938 289.642897983 -90 -37.6714256161 59.9494801484 70.8033697027 122.153408107 -147.846591893 9.70426725814e-44 -1.67489060291e-48 -1.0151646352e-47 1.02888974665e-47 -99.319775468 2.46853083693e-39
0.46891454755 0.0749568287 232.830081002 -37.6642778098 -229.763121891 0 -289.702797994 0 -289.111820777 289.702797994 -90 -37.6642778098 59.9396761026 70.7912652952 122.152727882 -147.847272118 6.35883830983e-44 -1.06670120588e-48 -6.46625689191e-48 6.55365718299e-48 -99.3152667189 1.61754337215e-39
0.46891454755 0.075 232.978820781 -37.6485590792 -229.916419616 0 -289.834534928 0 -289.231264023 289.834534928 -90 -37.6485590792 59.9181153126 70.7646459157 122.151231827 -147.848768173 1.49021596377e-44 -2.14103244131e-49 -1.2991915242e-48 1.31671656449e-48 -99.3053565568 3.79089935121e-40
0.478 0.07490502314 208.503285653 -34.3608648997 -205.65231075 0 -259.667478442 0 -257.381292474 259.667478442 -90 -34.3608648997 54.0151676915 64.0182811632 122.469980624 -147.530019376 1.04681256327e-42 -1.44469128974e-47 -8.58041359894e-47 8.70118829073e-47 -99.48963143 2.05996311805e-38
0.478 0.0749568287 208.563470555 -34.354751244 -205.71434985 0 -259.721499586 0 -257.509924492 259.721499586 -90 -34.354751244 54.007149736 64.0082344167 122.469211857 -147.530788143 6.90389351469e-43 -9.25202303411e-48 -5.49583842121e-47 5.57317312262e-47 -99.4851690116 1.35874389735e-38
0.478 0.075 208.695837926 -34.3413067931 -205.850792287 0 -259.840309165 0 -257.617041451 259.840309165 -90 -34.3413067931 53.9895168777 63.9861402057 122.467521102 -147.532478898 1.6820995947e-43 -1.93234143646e-48 -1.14904002549e-47 1.16517519706e-47 -99.4753605726 3.31292631793e-39
0.486 0.07490502314 186.309778498 -31.3411669995 -183.654381891 0 -232.251729437 0 -233.009306843 232.251729437 -90 -31.3411669995 48.5973475458 57.8273411646 122.826419564 -147.173580436 1.74314939719e-35 -2.4342500435e-40 -1.40985655567e-39 1.43071703712e-39 -99.6902431605 2.73411391843e-31
0.486 0.0749568287 186.311679684 -31.3281358377 -183.658535294 0 -232.235565483 0 -233.126793861 232.235565483 -90 -31.3281358377 48.5770301885 57.8032036575 122.826476263 -147.173523737 1.1660268369e-35 -1.58306825517e-40 -9.17049793191e-40 9.30613442152e-40 -99.6860589343 1.82936141346e-31
0.486 0.075 186.406554638 -31.311696497 -183.757585929 0 -232.311889112 0 -233.224633479 232.311889112 -90 -31.311696497 48.5543031827 57.7751937413 122.824989271 -147.175010729 3.13714305755e-36 -3.7243034829e-41 -2.16003567515e-40 2.19190750456e-40 -99.6759225785 4.92847778006e-32
0.44165819021 0.075043171299 316.553462307 -47.887158412 -312.910392461 0 -391.372870223 0 -416.532532037 391.372870223 -90 -47.887158412 78.4624777623 91.9213813985 121.396519029 -148.603480971 4.66810972262e-46 -9.34663190381e-51 -6.10504682467e-50 6.17617942281e-50 -98.7009214158 2.33770105568e-41
0.44165819021 0.075099919371 316.811208776 -47.8580077389 -313.175592363 0 -391.594439144 0 -416.763122844 391.594439144 -90 -47.8580077389 78.418846781 91.8689525172 121.39517642 -148.60482358 8.62644724328e-47 -2.21719683188e-51 -1.44996566392e-50 1.46681971022e-50 -98.6884559281 4.32576798744e-42
0.44165819021 0.075174028629 317.146430619 -47.8201064658 -313.520483275 0 -391.882597129 0 -417.063916563 391.882597129 -90 -47.8201064658 78.3621138539 91.800781437 121.393429938 -148.606570062 9.68360369917e-48 -3.18658796828e-52 -2.0871321747e-51 2.11131811448e-51 -98.6722769947 4.8643493901e-43
0.44165819021 0.075269989823 317.578243393 -47.771303671 -313.964710124 0 -392.253765354 0 -417.452824905 392.253765354 -90 -47.771303671 78.2890552295 91.7129959552 121.391179729 -148.608820271 5.69360708715e-49 -2.39409894298e-53 -1.57124503421e-52 1.58937977557e-52 -98.6514918151 2.86658260955e-44
0.44165819021 0.075392885381 318.127683039 -47.7092380066 -314.529879152 0 -392.726008539 0 -417.949937803 392.726008539 -90 -47.7092380066 78.1961293876 91.6013430508 121.388315754 -148.611684246 1.45207761295e-50 -7.76389444216e-55 -5.10892091922e-54 5.16757715212e-54 -98.6251345055 7.33254113273e-46
0.44165819021 0.075548074442 318.816043483 -47.6315280079 -315.237842159 0 -393.317602929 0 -418.576142996 393.317602929 -90 -47.6315280079 78.0797607701 91.4615302306 121.384726394 -148.615273606 1.29275373381e-52 -8.69687032577e-57 -5.74231511407e-56 5.80779979461e-56 -98.5922536756 6.55281891416e-48
0.44165819021 0.075740595209 319.662058853 -47.5360922753 -316.107793242 0 -394.044611282 0 -419.350596745 394.044611282 -90 -47.5360922753 77.9368180395 91.2898005782 121.380313068 -148.619686932 3.19618745276e-55 -2.66112371536e-59 -1.76456701947e-58 1.78452026103e-58 -98.5520541794 1.62781696737e-50
0.44165819021 0.075974237547 320.677920766 -47.4215989881 -317.152171429 0 -394.917458089 0 -420.28690216 394.917458089 -90 -47.4215989881 77.7652866603 91.0837410341 121.375010975 -148.624989025 1.82246810493e-58 -1.83722325119e-62 -1.2246046165e-61 1.23830947655e-61 -98.5040891042 9.33573517924e-54
0.44165819021 0.076250340873 321.864606562 -47.2879889519 -318.371863055 0 -395.93691621 0 -421.388298368 395.93691621 -90 -47.2879889519 77.5650531545 90.843224281 121.368813508 -148.631186492 2.34997803622e-62 -2.792150189e-66 -1.87268021294e-65 1.89338115733e-65 -98.4484732882 1.21210590654e-57
0.44165819021 0.076566547332 323.207638743 -47.1369443387 -319.751859532 0 -397.090469987 0 -422.642884664 397.090469987 -90 -47.1369443387 77.3386104549 90.5712549505 121.361794547 -148.638205453 8.81568144859e-67 -1.19594145887e-70 -8.07870539613e-70 8.1667470178e-70 -98.3860600662 4.58327308253e-62
0.44165819021 0.076915933327 324.674887866 -46.9721222408 -321.25902776 0 -398.350441387 0 -424.020635818 398.350441387 -90 -46.9721222408 77.091413627 90.2743948346 121.354120226 -148.645879774 1.77363807988e-71 -2.64958822238e-75 -1.80416571058e-74 1.82351777867e-74 -98.3185054012 9.30286681597e-67
0.44165819021 0.077287019364 326.2179197 -46.7989883885 -322.84352863 0 -399.67516671 0 -425.474139937 399.67516671 -90 -46.7989883885 76.8316380804 89.9624697677 121.346042297 -148.653957703 1.28943766887e-75 -2.03840038989e-79 -1.39993912781e-78 1.41470149619e-78 -98.2481586187 6.82740381772e-71
0.44165819021 0.077664969066 327.777412337 -46.6241986704 -324.444410579 0 -401.013669693 0 -426.944054109 401.013669693 -90 -46.6241986704 76.5692591137 89.6474616722 121.337870228 -148.662129772 1.07455110873e-79 -1.72354215086e-83 -1.19420514209e-82 1.2065785916e-82 -98.1777732356 5.7451495755e-75
0.44165819021 0.078033822604 328.571256838 -46.5352713744 -325.259187938 0 -401.694925721 0 -428.368322712 401.694925721 -90 -46.5352713744 76.435737783 89.4871694285 121.333708151 -148.666291849 8.60906494003e-83 -1.34257559365e-86 -9.38395832749e-86 9.479513865e-86 -98.1421297394 4.64713325777e-78
0.45074364266 0.075043171299 297.806282583 -45.6915669231 -294.279434268 0 -368.749028876 0 -367.909662793 368.749028876 -90 -45.6915669231 74.4695946086 87.3698283905 121.539039205 -148.460960795 5.9331149356e-46 -1.12273102512e-50 -7.20449505967e-50 7.29147133687e-50 -98.8339895544 2.56954006579e-41
0.45074364266 0.075099919371 298.046693556 -45.6646113117 -294.526901863 0 -368.956705528 0 -368.10988776 368.956705528 -90 -45.6646113117 74.4298036656 87.3218151193 121.537610109 -148.462389891 1.11416452889e-46 -2.70476914818e-51 -1.7373287934e-50 1.75826202224e-50 -98.8215755415 4.82389377959e-42
0.45074364266 0.075174028629 298.359373643 -45.6295634928 -294.848736703 0 -369.226799545 0 -368.371073718 369.226799545 -90 -45.6295634928 74.3780628414 87.2593843219 121.535751144 -148.464248856 1.27797352172e-47 -3.96834928676e-52 -2.55214972521e-51 2.58282423795e-51 -98.8054628595 5.53085210551e-43
0.45074364266 0.075269989823 298.762157195 -45.5844339987 -295.263274755 0 -369.57470585 0 -368.708776658 369.57470585 -90 -45.5844339987 74.3114310942 87.1789888116 121.533356039 -148.466643961 7.73859263636e-49 -3.06665941789e-53 -1.97547033183e-52 1.99913675058e-52 -98.7847618658 3.34713812848e-44
0.45074364266 0.075392885381 299.274672769 -45.5270384501 -295.790685208 0 -370.017362131 0 -369.140446223 370.017362131 -90 -45.5270384501 74.2266769235 87.0767319418 121.530307697 -148.469692303 2.05493748268e-50 -1.03385372221e-54 -6.67399302445e-54 6.75361161348e-54 -98.7585098036 8.88055434645e-46
0.45074364266 0.075548074442 299.916793853 -45.455173402 -296.451370782 0 -370.571907646 0 -369.684228391 370.571907646 -90 -45.455173402 74.1205368647 86.9486799181 121.52648735 -148.47351265 1.93243240257e-52 -1.22097802865e-56 -7.90339239532e-56 7.99716947408e-56 -98.7257578936 8.34141247264e-48
0.45074364266 0.075740595209 300.70601192 -45.3669122979 -297.263259927 0 -371.253411349 0 -370.356770944 371.253411349 -90 -45.3669122979 73.990151422 86.7913881598 121.521790125 -148.478209875 5.15246583521e-55 -4.01967117496e-59 -2.61071856627e-58 2.64148877067e-58 -98.6857124018 2.22030086791e-50
0.45074364266 0.075974237547 301.65372232 -45.2610211003 -298.237984157 0 -372.071662544 0 -371.169906797 372.071662544 -90 -45.2610211003 73.8336783878 86.6026414336 121.516147115 -148.483852885 3.23538524033e-58 -3.04789690983e-62 -1.98778799162e-61 2.01102377798e-61 -98.6379258363 1.39165197866e-53
0.45074364266 0.076250340873 302.760865904 -45.1374421063 -299.37640035 0 -373.027408732 0 -372.12647761 373.027408732 -90 -45.1374421063 73.6510083822 86.382316744 121.509551362 -148.490448638 4.67636537035e-62 -5.17748466843e-66 -3.39369552074e-65 3.43297017197e-65 -98.58250978 2.00882949939e-57
0.45074364266 0.076566547332 304.01397023 -44.9977278264 -300.664535316 0 -374.108944311 0 -373.216185485 374.108944311 -90 -44.9977278264 73.4444089948 86.1331592123 121.502081564 -148.497918436 1.97821348951e-66 -2.49412918095e-70 -1.64467841547e-69 1.66348583704e-69 -98.5203113733 8.49930033426e-62
0.45074364266 0.076915933327 305.38309367 -44.8452576765 -302.071498585 0 -375.290349223 0 -374.412995955 375.290349223 -90 -44.8452576765 73.2188506388 85.861173041 121.493914587 -148.506085413 4.37904645025e-71 -6.06871463359e-75 -4.03020590345e-74 4.07564915686e-74 -98.4529778924 1.88747833614e-66
0.45074364266 0.077287019364 306.823073318 -44.6850850688 -303.550797267 0 -376.532584999 0 -375.675768839 376.532584999 -90 -44.6850850688 72.9817877322 85.5753549199 121.485318374 -148.514681626 3.3181890965e-75 -4.863255274e-79 -3.25573738638e-78 3.29186554932e-78 -98.3828486998 1.44039894549e-70
0.45074364266 0.077664969066 308.27856993 -44.523366155 -305.045547676 0 -377.787868218 0 -376.952983446 377.787868218 -90 -44.523366155 72.7423205414 85.2866807881 121.47662225 -148.52337775 2.68648358961e-79 -3.9979902857e-83 -2.7000827791e-82 2.72952645735e-82 -98.312667769 1.17925008843e-74
0.45074364266 0.078033822604 303.197808609 -43.7281869117 -300.027278941 0 -371.365394096 0 -378.190734213 371.365394096 -90 -43.7281869117 71.3381151548 83.6738774133 121.513532746 -148.486467254 1.34338302698e-82 -1.94743116686e-86 -1.32728201817e-85 1.34149533629e-85 -98.2991556855 5.98258693889e-78
0.45074364266 0.078379102643 290.759451479 -42.205046481 -287.68001786 0 -356.2783617 0 -379.341525988 356.2783617 -90 -42.205046481 68.5983438401 80.5419066453 121.601856342 -148.398143658 5.26358151658e-85 -6.96889254273e-89 -4.75016922932e-88 4.80101680271e-88 -98.3462267748 2.22494376784e-80
0.45982909511 0.075043171299 262.993768518 -41.4820801329 -259.701136476 0 -326.537264598 0 -325.812433134 326.537264598 -90 -41.4820801329 66.8361281217 78.6630451907 121.834005738 -148.165994262 1.12699311469e-45 -1.92459290942e-50 -1.19877429574e-49 1.21412758376e-49 -99.0822338016 3.73819420634e-41
0.45982909511 0.075099919371 263.202791635 -41.459209067 -259.916454573 0 -326.719923282 0 -325.988670919 326.719923282 -90 -41.459209067 66.8034687091 78.6232346666 121.832386485 -148.167613515 2.17617395995e-46 -4.76768693187e-51 -2.97257202796e-50 3.01056901879e-50 -99.0699295991 7.21750671975e-42
0.45982909511 0.075174028629 263.47465901 -41.4294711712 -260.196489409 0 -326.957488767 0 -326.21857489 326.957488767 -90 -41.4294711712 66.7609993583 78.5714678815 121.830280223 -148.169719777 2.5896296627e-47 -7.25570432446e-52 -4.5295189433e-51 4.58727262156e-51 -99.0539583878 8.58745051867e-43
0.45982909511 0.075269989823 263.824886797 -41.3911776466 -260.557205374 0 -327.263509804 0 -326.515845735 327.263509804 -90 -41.3911776466 66.7063044297 78.50480186 121.827566596 -148.172433404 1.64698418147e-48 -5.88765934483e-53 -3.68154300951e-52 3.72833120979e-52 -99.0334373917 5.46036404732e-44
0.45982909511 0.075392885381 264.270557872 -41.3424738039 -261.016168866 0 -327.652897644 0 -326.895856672 327.652897644 -90 -41.3424738039 66.6367287784 78.4200027027 121.824113019 -148.175886981 4.66865704437e-50 -2.11869707976e-54 -1.32766730524e-53 1.34446849469e-53 -99.0074107371 1.54738406553e-45
0.45982909511 0.075548074442 264.82897774 -41.281488054 -261.591159391 0 -328.140748865 0 -327.374602283 328.140748865 -90 -41.281488054 66.5495894742 78.3138040683 121.819785054 -148.180214946 4.78122784701e-52 -2.72550121155e-56 -1.71264257445e-55 1.73419673499e-55 -98.9749355396 1.58415377429e-47
0.45982909511 0.075740595209 265.515393384 -41.2065828279 -262.297816416 0 -328.740349619 0 -327.966769823 328.740349619 -90 -41.2065828279 66.442533203 78.1833431832 121.814464062 -148.185535938 1.42825352108e-54 -1.00570189862e-58 -6.34141698417e-58 6.42068057793e-58 -98.9352215383 4.72942851315e-50
0.45982909511 0.075974237547 266.33976545 -41.1167071659 -263.146314701 0 -329.460354244 0 -328.682821901 329.460354244 -90 -41.1167071659 66.3140395429 78.0267743946 121.808072205 -148.191927795 1.0283833099e-57 -8.74977454528e-62 -5.54065144339e-61 5.60932260702e-61 -98.8878206033 3.40426651149e-53
0.45982909511 0.076250340873 267.302976672 -41.0118074485 -264.137465979 0 -330.301474739 0 -329.525319474 330.301474739 -90 -41.0118074485 66.1640087602 77.8439851643 121.800601859 -148.199398141 1.72924728362e-61 -1.73054886905e-65 -1.10150237379e-64 1.11501525323e-64 -98.8328380577 5.72743478813e-57
0.45982909511 0.076566547332 268.393381808 -40.8931961971 -265.259182009 0 -331.253473957 0 -330.485263984 331.253473957 -90 -40.8931961971 65.9942919483 77.6372409152 121.79214243 -148.20785757 8.48454358668e-66 -9.67758990261e-70 -6.19753327234e-69 6.27264538354e-69 -98.771108485 2.81611107139e-61
0.45982909511 0.076915933327 269.585005342 -40.7637370584 -266.484643321 0 -332.293604219 0 -331.539797711 332.293604219 -90 -40.7637370584 65.8089608979 77.4115117596 121.782894455 -148.217105545 2.09011119619e-70 -2.62258517859e-74 -1.69142551299e-73 1.71163872307e-73 -98.7042610838 6.97107509136e-66
0.45982909511 0.077287019364 270.838607513 -40.6277164086 -267.773423915 0 -333.387555274 0 -332.652739761 333.387555274 -90 -40.6277164086 65.6141313588 77.1742544899 121.773161509 -148.226838491 1.64138613915e-74 -2.17946968145e-78 -1.41679902151e-77 1.43346622172e-77 -98.6346140257 5.51894424662e-70
0.45982909511 0.077664969066 272.106054109 -40.4903597095 -269.076009083 0 -334.4932864 0 -333.778727002 334.4932864 -90 -40.4903597095 65.4172773174 76.9345748102 121.763316518 -148.236683482 1.26473588214e-78 -1.70585137296e-82 -1.11837036391e-81 1.13130669149e-81 -98.5648904715 4.30104753819e-74
0.45982909511 0.078033822604 273.33716989 -40.3570865015 -270.34085176 0 -335.567019452 0 -334.870244191 335.567019452 -90 -40.3570865015 65.2261676921 76.7019310131 121.753748786 -148.246251214 4.24807874322e-82 -5.58236405051e-86 -3.69188710481e-85 3.73385815968e-85 -98.4978203717 1.46502162086e-77
0.45982909511 0.078379102643 273.962972532 -40.2893779764 -270.983691278 0 -336.112737973 0 -335.885374807 336.112737973 -90 -40.2893779764 65.1290466945 76.583713797 121.748883888 -148.251116112 1.23520830158e-84 -1.51856660739e-88 -1.01290192439e-87 1.02422357419e-87 -98.4639009428 4.32671034879e-80
0.46891454755 0.075043171299 233.135179681 -37.6320389488 -230.07756133 0 -289.97301473 0 -289.350625448 289.97301473 -90 -37.6320389488 59.8954533998 70.736667849 122.149659039 -147.850340961 3.5342247854e-45 -5.42789160482e-50 -3.29685972661e-49 3.3412464176e-49 -99.294954316 8.99091582167e-41
0.46891454755 0.075099919371 233.31854831 -37.6126704483 -230.266527768 0 -290.135409438 0 -289.507399853 290.135409438 -90 -37.6126704483 59.86888167 70.7038638166 122.147814506 -147.852185494 7.04030271054e-46 -1.38716300098e-50 -8.43379166454e-50 8.54711733244e-50 -99.2827753973 1.79111473275e-41
0.46891454755 0.075174028629 233.557059847 -37.5874864296 -230.512302832 0 -290.346630423 0 -289.711923818 290.346630423 -90 -37.5874864296 59.8343275911 70.6612068719 122.145415289 -147.854584711 8.72479389509e-47 -2.1979680287e-51 -1.33802787666e-50 1.35596201258e-50 -99.266965899 2.2198614963e-42
0.46891454755 0.075269989823 233.864337512 -37.5550564318 -230.828908914 0 -290.618733775 0 -289.97639498 290.618733775 -90 -37.5550564318 59.7898248608 70.6062711207 122.14232436 -147.85767564 5.85228696347e-48 -1.88051502985e-52 -1.14666783636e-51 1.16198673615e-51 -99.2466511728 1.48924839419e-43
0.46891454755 0.075392885381 234.255386432 -37.5138093189 -231.231782055 0 -290.964993766 0 -290.314505601 290.964993766 -90 -37.5138093189 59.7332117109 70.5363903825 122.138390803 -147.861609197 1.77787092791e-49 -7.2515791505e-54 -4.43132617438e-53 4.49027218524e-53 -99.2208836769 4.52561074723e-45
0.46891454755 0.075548074442 234.745417616 -37.4621593752 -231.736556203 0 -291.398859124 0 -290.740510613 291.398859124 -90 -37.4621593752 59.6623029211 70.4488709533 122.133461657 -147.866538343 1.98710191807e-51 -1.01832656124e-55 -6.24029012068e-55 6.3228382025e-55 -99.1887279876 5.06126270795e-47
0.46891454755 0.075740595209 235.347849681 -37.3987187264 -232.357001016 0 -291.932181402 0 -291.267515157 291.932181402 -90 -37.3987187264 59.5751803862 70.3413506752 122.127402018 -147.872597982 6.62196876964e-54 -4.19457830298e-58 -2.57954181934e-57 2.61342546375e-57 -99.1493988571 1.68837540183e-49
0.46891454755 0.075974237547 236.071478344 -37.3225959074 -233.102105212 0 -292.572707737 0 -291.904881385 292.572707737 -90 -37.3225959074 59.470602525 70.2123044478 122.120123525 -147.879876475 5.41694435508e-57 -4.14966495737e-61 -2.56309174963e-60 2.59646824317e-60 -99.1024487988 1.38350609645e-52
0.46891454755 0.076250340873 236.917147256 -37.2337437755 -233.97265226 0 -293.321135061 0 -292.654955779 293.321135061 -90 -37.2337437755 59.3484828011 70.0616344738 122.111617824 -147.888382176 1.03069576155e-60 -9.29791733705e-65 -5.77353035097e-64 5.84792412775e-64 -99.0479775858 2.6410083205e-56
0.46891454755 0.076566547332 237.874712008 -37.1332720817 -234.958106596 0 -294.168428449 0 -293.509806919 294.168428449 -90 -37.1332720817 59.2103218532 69.8912023661 122.101987047 -147.898012953 5.55932301802e-65 -5.72406008674e-69 -3.5767170955e-68 3.62223308373e-68 -98.9868070337 1.43216492714e-60
0.46891454755 0.076915933327 238.921442712 -37.0236045516 -236.034989693 0 -295.09441809 0 -294.44916342 295.09441809 -90 -37.0236045516 59.0594283979 69.7050996261 122.091459783 -147.908540217 1.41120513932e-69 -1.60075687708e-73 -1.00746787831e-72 1.02010647877e-72 -98.9205468458 3.66508873233e-65
0.46891454755 0.077287019364 240.022939146 -36.908370662 -237.167846569 0 -296.06862356 0 -295.440868882 296.06862356 -90 -36.908370662 58.9007769909 69.5094694718 122.080381777 -147.919618223 1.04300192973e-73 -1.2538460998e-77 -7.95451871899e-77 8.05273840714e-77 -98.8514912748 2.73962421476e-69
0.46891454755 0.077664969066 241.136947747 -36.7919964602 -238.313193938 0 -297.053645225 0 -296.444546201 297.053645225 -90 -36.7919964602 58.740451287 69.3118176243 122.069177521 -147.930822479 6.92395543179e-78 -8.46788229637e-82 -5.4180032046e-81 5.48378155198e-81 -98.7823388133 1.84532902631e-73
0.46891454755 0.078033822604 242.219369366 -36.6790737181 -239.425708518 0 -298.010487588 0 -297.417844981 298.010487588 -90 -36.6790737181 58.5847790697 69.1199442794 122.058289954 -147.941710046 1.88093797627e-81 -2.24497615279e-85 -1.44899407193e-84 1.46628348196e-84 -98.7157979262 5.10127962662e-77
0.46891454755 0.078379102643 238.584373146 -36.0490408528 -235.84494664 0 -293.332723172 0 -298.323349043 293.332723172 -90 -36.0490408528 57.4877765316 67.8557952819 122.098199183 -147.901800817 2.97903999131e-84 -3.33144085654e-88 -2.16875324971e-87 2.19419384958e-87 -98.6951223002 8.23720479459e-80
0.46891454755 0.078689931403 229.2859831 -34.7767749129 -226.633267577 0 -281.859638151 0 -299.133863878 281.859638151 -90 -34.7767749129 55.2263705742 65.2638956862 122.199162983 -147.800837017 2.67256047126e-86 -2.62472979215e-90 -1.71048376622e-89 1.73050477588e-89 -98.7239631091 7.02510074584e-82
0.478 0.075043171299 208.834990755 -34.3271771258 -205.994221402 0 -259.96520496 0 -257.72408893 259.96520496 -90 -34.3271771258 53.9709835577 63.9629184943 122.465743716 -147.534256284 4.13254068773e-44 -5.08462422798e-49 -3.02653000971e-48 3.06894501985e-48 -99.4650648264 8.14481857302e-40
0.478 0.075099919371 208.998187809 -34.3106114235 -206.162423676 0 -260.111676302 0 -257.864695617 260.111676302 -90 -34.3106114235 53.949252626 63.9356913165 122.463659332 -147.536340668 8.54253336353e-45 -1.3482277098e-49 -8.03325485276e-49 8.14560863681e-49 -99.4530101801 1.68496352631e-40
0.478 0.075174028629 209.21047263 -34.2890718538 -206.381203525 0 -260.302196687 0 -258.048137781 260.302196687 -90 -34.2890718538 53.9209931624 63.9002860756 122.460948259 -147.539051741 1.10872873376e-45 -2.23637744722e-50 -1.3342653383e-49 1.35287799371e-49 -99.437361281 2.18920603834e-41
0.478 0.075269989823 209.483980404 -34.2613349394 -206.663053482 0 -260.54765005 0 -258.28536517 260.54765005 -90 -34.2613349394 53.8845965675 63.8546889315 122.457455753 -147.542544247 7.87552246865e-47 -2.02522529385e-51 -1.21035826443e-50 1.22718511948e-50 -99.4172516889 1.55728764757e-42
0.478 0.075392885381 209.832083163 -34.2260568154 -207.021731569 0 -260.860025553 0 -258.588674795 260.860025553 -90 -34.2260568154 53.8382939835 63.7966862838 122.453011431 -147.546988569 2.56259277061e-48 -8.36295753592e-53 -5.00929117595e-52 5.07862204831e-52 -99.391742345 5.07738868569e-44
0.478 0.075548074442 210.268345979 -34.1818810212 -207.471182105 0 -261.251478883 0 -258.970878131 261.251478883 -90 -34.1818810212 53.7802967775 63.7240411916 122.447442661 -147.552557339 3.09153567347e-50 -1.26788168036e-54 -7.61655245133e-54 7.72136154517e-54 -99.3599055356 6.14243396056e-46
0.478 0.075740595209 210.804751162 -34.1276201118 -208.023702816 0 -261.732736803 0 -259.443768363 261.732736803 -90 -34.1276201118 53.7090339871 63.6347912212 122.440597293 -147.559402707 1.10964557402e-52 -5.62883472105e-57 -3.39388365494e-56 3.44024556137e-56 -99.320961393 2.21309421898e-48
0.478 0.075974237547 211.449180055 -34.0625109614 -208.687349613 0 -262.31083668 0 -260.015796359 262.31083668 -90 -34.0625109614 53.6234870667 63.5276679239 122.432375812 -147.567624188 9.85569618929e-56 -6.05112102016e-60 -3.66500961967e-59 3.71462813607e-59 -99.2744635604 1.97502546558e-51
0.478 0.076250340873 212.202447148 -33.9865123335 -209.46288546 0 -262.986466886 0 -260.689133485 262.986466886 -90 -33.9865123335 53.5235814259 63.4025868745 122.422769105 -147.577230895 1.96035862778e-59 -1.41894891565e-63 -8.64098541919e-63 8.75671615405e-63 -99.220506833 3.95314386158e-55
0.478 0.076566547332 213.055589119 -33.9005723516 -210.340999456 0 -263.751539917 0 -261.456737274 263.751539917 -90 -33.9005723516 53.4105404605 63.2610898433 122.411892811 -147.588107189 1.00026253641e-63 -8.27894121798e-68 -5.07386706375e-67 5.14096758747e-67 -99.1599008394 2.03409403297e-59
0.478 0.076915933327 213.988427828 -33.8067631369 -211.300845523 0 -264.587912807 0 -262.300485716 264.587912807 -90 -33.8067631369 53.2870672832 63.1065702356 122.400005268 -147.599994732 2.10109888961e-68 -1.92153291187e-72 -1.18622836994e-71 1.20169106851e-71 -99.0942362598 4.32032920618e-64
0.478 0.077287019364 214.970366368 -33.7081886252 -212.310883744 0 -265.468113381 0 -263.191564015 265.468113381 -90 -33.7081886252 53.157229637 62.9441263299 122.38749693 -147.61250307 1.11857983598e-72 -1.08956672344e-76 -6.78071130526e-76 6.86769509573e-76 -99.025783664 2.33403591651e-68
0.478 0.077664969066 215.963771508 -33.6086348895 -213.33237968 0 -266.358385108 0 -264.093732775 266.358385108 -90 -33.6086348895 53.0260054282 62.779990013 122.374846982 -147.625153018 5.03709293268e-77 -5.02763200028e-81 -3.15590638225e-80 3.19570432207e-80 -98.9572167716 1.0704474314e-72
0.478 0.078033822604 216.929317319 -33.5120305885 -214.324909548 0 -267.223484794 0 -264.968925985 267.223484794 -90 -33.5120305885 52.898575246 62.6206402455 122.362555286 -147.637444714 9.62486853954e-81 -9.44862821701e-85 -5.98278573735e-84 6.05694127818e-84 -98.8912220749 2.08651056321e-76
0.478 0.078379102643 217.831815432 -33.4218672649 -215.252350156 0 -268.031907614 0 -265.783459437 268.031907614 -90 -33.4218672649 52.7795574586 62.4718466687 122.351068487 -147.648931513 8.95412773158e-84 -8.27905982293e-88 -5.28524228338e-87 5.34969686888e-87 -98.8301066155 1.97616994796e-79
0.478 0.078689931403 218.288950155 -33.376232402 -215.722043871 0 -268.441339457 0 -266.512800342 268.441339457 -90 -33.376232402 52.7192955866 62.396518437 122.345250654 -147.654749346 6.03712339512e-86 -5.04414826128e-90 -3.24343370225e-89 3.28242496347e-89 -98.7993031767 1.35107990927e-81
0.486 0.075043171299 186.659132184 -31.3145900329 -184.013310031 0 -232.580059623 0 -233.322412861 232.580059623 -90 -31.3145900329 48.5667495916 57.7872217463 122.820716789 -147.179283211 8.27450217848e-37 -1.03438659622e-41 -6.00626777993e-41 6.09468691406e-41 -99.6635819888 1.3016054975e-32
0.486 0.075099919371 186.942152185 -31.3166947729 -184.300037877 0 -232.878934751 0 -233.450850835 232.878934751 -90 -31.3166947729 48.5788968738 57.7985710837 122.815944055 -147.184055945 1.88058381892e-37 -2.94142363516e-42 -1.70997423308e-41 1.73508836678e-41 -99.6494442236 2.96235671973e-33
0.486 0.075174028629 187.237030885 -31.3103484321 -184.600215741 0 -233.178388282 0 -233.618425546 233.178388282 -90 -31.3103484321 48.5781725406 57.7945230806 122.811037685 -147.188962315 2.86827474911e-38 -5.61672057288e-43 -3.27002139108e-42 3.3179083069e-42 -99.6321091998 4.52622952332e-34
0.486 0.075269989823 187.562424736 -31.2955142694 -184.932761682 0 -233.497856264 0 -233.835147377 233.497856264 -90 -31.2955142694 48.5650945818 57.7754932973 122.805685547 -147.194314453 2.60371757646e-39 -6.38678765136e-44 -3.72525144092e-43 3.77960434709e-43 -99.6106211993 4.11812384193e-35
0.486 0.075392885381 187.936663309 -31.2718657984 -185.316303727 0 -233.856016502 0 -234.112262943 233.856016502 -90 -31.2718657984 48.5397127749 57.7413468676 122.799583823 -147.200416177 1.19975957811e-40 -3.68181334182e-45 -2.1526165474e-44 2.18387626266e-44 -99.5839698979 1.90316278104e-36
0.486 0.075548074442 188.376967028 -31.2388972583 -185.76836487 0 -234.270120534 0 -234.461496864 234.270120534 -90 -31.2388972583 48.5017556637 57.6915819262 122.792449558 -147.207550442 2.29561258999e-42 -8.75978469367e-47 -5.13704823359e-46 5.21119975958e-46 -99.5511717495 3.65520447103e-38
0.486 0.075740595209 188.898029603 -31.1961002137 -186.303893053 0 -234.754754597 0 -234.893654165 234.754754597 -90 -31.1961002137 48.4508615438 57.6256194651 122.784043335 -147.215956665 1.44806905095e-44 -6.78339487116e-49 -3.99311417833e-48 4.05032163211e-48 -99.511403483 2.31657446365e-40