TITLE = "Electromagnetic Field"
VARIABLES = X Y E ER EI EvR EvI EvR' EvI' Ev EvPhase EpR EpI Ep EpPhase EpToEvPhaseShift elConductivity Jr Ji J Jphase QJ
ZONE N=292, E=255, F=FEPOINT, ET=QUADRILATERAL
0.85342517506 0.0098827158772 1.60493732526 -0.527477352306 -1.51578080896 0 -1.80945412228 0 -1.77285505933 1.80945412228 -90 -0.527477352306 0.293673313314 0.603718785652 150.893101846 -119.106898154 288.248970699 -0.000143244905404 -0.00041163450458 0.000435846381521 -109.187412126 371.239282123
0.85466727522 0.0096415751633 1.58047475357 -0.519012245098 -1.49282501312 0 -1.78169047733 0 -1.7185483424 1.78169047733 -90 -0.519012245098 0.288865464208 0.593983984905 150.901237413 -119.098762587 288.494047566 -0.000138814401718 -0.000399263199353 0.000422706228882 -109.170824925 360.394171809
0.85590937506 0.0094004345094 1.5310117335 -0.501811437303 -1.44643765441 0 -1.72556219764 0 -1.66488685526 1.72556219764 -90 -0.501811437303 0.279124543234 0.574217061039 150.915811604 -119.084188396 288.963592346 -0.000129932064519 -0.000374513004272 0.000396411848053 -109.132811872 338.74396908
0.85715147455 0.0091592939214 1.48211869221 -0.484626060678 -1.40064732619 0 -1.67010025456 0 -1.61186268175 1.67010025456 -90 -0.484626060678 0.26945292837 0.554497340529 150.925932591 -119.074067409 289.348655777 -0.000121298205909 -0.000350562254804 0.000370954415591 -109.085262955 317.882155711
0.85839357365 0.0089181534058 1.43378819503 -0.467431343963 -1.35545411585 0 -1.61529661858 0 -1.55946801939 1.61529661858 -90 -0.467431343963 0.259842502735 0.534799203066 150.930573434 -119.069426566 289.555963698 -0.000112879596161 -0.000327316288185 0.000346233728217 -109.026319764 297.709306101
0.85963567234 0.0086770129703 1.3860128538 -0.450198702305 -1.31085919116 0 -1.56114339177 0 -1.50769517825 1.56114339177 -90 -0.450198702305 0.250284200612 0.515093247239 150.92843819 -119.07156181 289.354671543 -0.000104603980496 -0.000304565044418 0.000322027808862 -108.95372572 278.019506117
0.86087777055 0.0084358726234 1.3387853481 -0.432896092716 -1.26686458227 0 -1.50763280822 0 -1.45653658043 1.50763280822 -90 -0.432896092716 0.240768225947 0.495346717037 150.917902871 -119.082097129 288.206291598 -9.63220264179e-05 -0.000281866779599 0.000297870574216 -108.864780602 258.390895281
0.86211986824 0.0081947323751 1.2920984634 -0.415489903226 -1.22347242439 0 -1.45475723862 0 -1.4059847588 1.45475723862 -90 -0.415489903226 0.231284814232 0.475525538055 150.896971952 -119.103028048 284.94639737 -8.77490003117e-05 -0.000258364287002 0.000272859070122 -108.75636015 238.009641792
0.86336196535 0.0079535922369 1.2459451368 -0.397950075803 -1.18068309783 0 -1.4025091926 0 -1.3560323567 1.4025091926 -90 -0.397950075803 0.221826094777 0.455599720692 150.863298283 -119.136701717 277.331377565 -7.84119457693e-05 -0.000232601944125 0.000245463219283 -108.625100865 215.486310679
0.86460406181 0.0077124522221 1.22249033418 -0.38894542999 -1.15896681128 0 -1.3759632988 0 -1.30667212753 1.3759632988 -90 -0.38894542999 0.216996487524 0.445383007206 150.842421628 -119.157578372 271.910995759 -7.3362166185e-05 -0.000218602172068 0.000230583861231 -108.551582364 203.183128288
0.85360384418 0.010618810803 1.66135328186 -0.544656066005 -1.56953577603 0 -1.87301939936 0 -1.90296784495 1.87301939936 -90 -0.544656066005 0.303483623329 0.623500267235 150.873954196 -119.126045804 285.793983604 -0.000146604707973 -0.000422461014572 0.000447176017017 -109.139292977 394.6339596
0.85484083058 0.010353660335 1.63581579584 -0.535883561307 -1.5455484974 0 -1.84403871734 0 -1.84365618737 1.84403871734 -90 -0.535883561307 0.298490219941 0.613406595383 150.882678578 -119.117321422 286.128300549 -0.000142107536422 -0.000409839637619 0.000433777845365 -109.124153426 383.130241393
0.85607781667 0.01008850993 1.58417881494 -0.518055310661 -1.49707696849 0 -1.78544937796 0 -1.78504652693 1.78544937796 -90 -0.518055310661 0.288372409477 0.59290807795 150.898427109 -119.101572891 286.778273432 -0.000133085806645 -0.000384577301198 0.000406954111731 -109.089048313 360.155599922
0.85731480244 0.0098233595951 1.53313568475 -0.500237498251 -1.44922939046 0 -1.72755409543 0 -1.72713030784 1.72755409543 -90 -0.500237498251 0.278324704977 0.572452814117 150.909675974 -119.090324026 287.341730425 -0.000124305018688 -0.000360107374499 0.000380958213798 -109.044333912 337.998577388
0.85855178784 0.009558209337 1.48267869277 -0.482404991493 -1.40200567067 0 -1.67034453694 0 -1.66989909584 1.67034453694 -90 -0.482404991493 0.26833886627 0.552014804636 150.915399213 -119.084600787 287.725744182 -0.000115732146833 -0.000336334951323 0.000355689785005 -108.988151223 316.555752455
0.85978877283 0.0092930591636 1.43280018185 -0.464528775536 -1.35540682159 0 -1.61381250571 0 -1.61334457694 1.61381250571 -90 -0.464528775536 0.258405684118 0.531564199917 150.914302788 -119.085697212 287.70033212 -0.000107294052606 -0.000313046320906 0.000330923110179 -108.918243284 295.610380561
0.86102575737 0.0090279090842 1.38349257549 -0.446576332909 -1.3094347364 0 -1.55794994147 0 -1.55745855643 1.55794994147 -90 -0.446576332909 0.248515205067 0.511067750961 150.904766136 -119.095233864 286.728801248 -9.88383583618e-05 -0.000289789258701 0.000306181206686 -108.831909552 274.716101457
0.86226274142 0.0087627591093 1.33474842339 -0.428513601037 -1.26409141377 0 -1.5027489245 0 -1.50223295822 1.5027489245 -90 -0.428513601037 0.238657510727 0.490490914078 150.884799758 -119.115200242 283.650051802 -9.00734876648e-05 -0.000265683922736 0.000280537490226 -108.726024924 253.010192779
0.86349972491 0.0084976092511 1.28656046138 -0.410310257845 -1.21937705602 0 -1.44820167932 0 -1.44765982427 1.44820167932 -90 -0.410310257845 0.228824623299 0.469803417531 150.85206701 -119.14793299 276.225813165 -8.05143961904e-05 -0.000239234838179 0.000252420259404 -108.597223266 229.019504896
0.86473670777 0.0082324595237 1.2592198571 -0.398814854492 -1.1943941491 0 -1.41718379889 0 -1.39373131415 1.41718379889 -90 -0.398814854492 0.222789649796 0.456824451081 150.810986648 -119.189013352 264.31068685 -7.15190475486e-05 -0.000214110789231 0.000225739950158 -108.464729415 209.714323978
0.86593388912 0.0079758414039 1.25305543538 -0.394167736213 -1.18944513109 0 -1.41004254904 0 -1.34214457632 1.41004254904 -90 -0.394167736213 0.220597417954 0.451698378433 150.766282143 -119.233717857 250.052925723 -6.32566687174e-05 -0.000190884056969 0.000201092340337 -108.334572258 196.310041124
0.85379509028 0.011351739293 1.77376775212 -0.578622975212 -1.67673642538 0 -1.99967023018 0 -2.03211545093 1.99967023018 -90 -0.578622975212 0.322933804795 0.662639302682 150.834384003 -119.165615997 280.815870304 -0.000153023530798 -0.000443420863529 0.000469082545695 -109.040578567 441.948415746
0.85502649707 0.011062686102 1.74609128252 -0.569250947558 -1.65069250463 0 -1.96826808913 0 -1.96784984183 1.96826808913 -90 -0.569250947558 0.317575584498 0.651844273732 150.844330748 -119.155669252 281.328723263 -0.000148410399843 -0.000430340005711 0.000455212400265 -109.028398186 429.138969391
0.85625790357 0.010773632977 1.69012815296 -0.550198085502 -1.59806543915 0 -1.90478193184 0 -1.90434143711 1.90478193184 -90 -0.550198085502 0.306716492693 0.629915065354 150.862516786 -119.137483214 282.340090605 -0.000139143993785 -0.000404133071275 0.000427416336046 -108.9992391 403.535260707
0.85748930976 0.010484579926 1.63480598054 -0.531144085534 -1.54611598655 0 -1.84204448319 0 -1.84158107735 1.84204448319 -90 -0.531144085534 0.295928496632 0.608019532549 150.876105953 -119.123894047 283.261720906 -0.000130100979824 -0.00037869843123 0.000400423377871 -108.960324312 378.80056126
0.8587207156 0.010195526955 1.58011651035 -0.51206313817 -1.49484369876 0 -1.78004682217 0 -1.77955973126 1.78004682217 -90 -0.51206313817 0.285203123404 0.58613096406 150.884074235 -119.115925765 284.001347578 -0.000121248813017 -0.000353940919748 0.000374133068415 -108.909793309 354.823773486
0.85995212105 0.0099064740731 1.5260515588 -0.492925417563 -1.44424927933 0 -1.71878017151 0 -1.71826849491 1.71878017151 -90 -0.492925417563 0.274530892187 0.564218663464 150.885131309 -119.114868691 284.330703488 -0.00011251271516 -0.000329639870869 0.000348312582609 -108.84538813 331.366540222
0.86118352607 0.0096174212898 1.47260304813 -0.473697508226 -1.39433434809 0 -1.65823589938 0 -1.65769859046 1.65823589938 -90 -0.473697508226 0.263901551297 0.542248447615 150.877663224 -119.122336776 283.716737329 -0.000103734433452 -0.000305322642453 0.000322463720411 -108.764407432 307.932987021
0.86241493061 0.009328368616 1.41976306674 -0.454344496998 -1.34510063086 0 -1.59840552272 0 -1.59784136549 1.59840552272 -90 -0.454344496998 0.253304891863 0.520184886119 150.859691995 -119.140308005 281.005173464 -9.46090436497e-05 -0.00028006495098 0.000295613527672 -108.663724337 283.561053456
0.86364633463 0.0090393160646 1.36752395439 -0.434835578425 -1.29654797314 0 -1.53928071189 0 -1.53868829209 1.53928071189 -90 -0.434835578425 0.242732738749 0.497997189446 150.828900823 -119.171099177 273.96878025 -8.46277873946e-05 -0.000252292753781 0.000266108275875 -108.539967446 256.607072599
0.86487773804 0.0087502636504 1.31668288137 -0.415466613415 -1.24941486267 0 -1.48176350344 0 -1.4802309671 1.48176350344 -90 -0.415466613415 0.232348640776 0.47602358713 150.78369408 -119.21630592 259.424511966 -7.23056367696e-05 -0.000217362748517 0.000229073750775 -108.392699508 225.428568281
0.86606952462 0.0084705107292 1.2877228641 -0.403345875379 -1.22292201558 0 -1.44894645788 0 -1.42430905198 1.44894645788 -90 -0.403345875379 0.226024442294 0.4623581075 150.734830629 -119.265169371 240.705215632 -5.91128642002e-05 -0.000179093173623 0.000188596843204 -108.253905379 199.744810718
0.86706268061 0.0082373831785 1.28095374343 -0.398305828324 -1.2174542948 0 -1.44113517651 0 -1.37819397399 1.44113517651 -90 -0.398305828324 0.223680881714 0.45681579408 150.682272415 -119.317727585 219.354666656 -4.47882874309e-05 -0.000136899058492 0.000144039379709 -108.116174108 179.963229022
0.85399883901 0.012081294604 1.88531104687 -0.611790842001 -1.78328536203 0 -2.12532003984 0 -2.16023685373 2.12532003984 -90 -0.611790842001 0.342034677812 0.700910711474 150.79228383 -119.20771617 275.716616934 -0.000158845899011 -0.000463000684621 0.000489491427621 -108.937090175 490.158823562
0.85522418347 0.011768460139 1.85551771438 -0.60185013595 -1.75519786558 0 -2.09152219121 0 -2.09107310194 2.09152219121 -90 -0.60185013595 0.336324325622 0.689447402724 150.803541856 -119.196458144 276.407190119 -0.000154150181015 -0.000449538653703 0.000475234118123 -108.927988175 476.073466511
0.85644952765 0.011455625743 1.79527266904 -0.581633771225 -1.69844153431 0 -2.02319066299 0 -2.02272006573 2.02319066299 -90 -0.581633771225 0.324749128673 0.666153063832 150.824341932 -119.175658068 277.779263872 -0.000144704739504 -0.000422540853091 0.000446632272768 -108.905018465 447.894034195
0.85767487154 0.011142791423 1.73571439504 -0.561401522312 -1.64241608229 0 -1.95566089322 0 -1.95516802022 1.95566089322 -90 -0.561401522312 0.313244810931 0.642879482523 150.840439121 -119.159560879 279.060234617 -0.000135460641589 -0.000396284134739 0.000418796883219 -108.87214815 420.620473775
0.85890021509 0.010829957187 1.67683412134 -0.541126982783 -1.58712072038 0 -1.88892340935 0 -1.88840737545 1.88892340935 -90 -0.541126982783 0.301802688966 0.619599314384 150.850811258 -119.149188742 280.158338419 -0.000126385869591 -0.000370673274982 0.000391627601556 -108.827514278 394.134423196
0.86012555827 0.010517123043 1.61862316224 -0.520779606311 -1.53255585181 0 -1.82296889014 0 -1.82242867413 1.82296889014 -90 -0.520779606311 0.290413038324 0.59628110712 150.854171434 -119.145828566 280.846965574 -0.000117404208825 -0.000345481224569 0.000364885093957 -108.768857196 368.175955554
0.86135090104 0.010204289001 1.56107296017 -0.500325174286 -1.47872282713 0 -1.75778816685 0 -1.7572225913 1.75778816685 -90 -0.500325174286 0.279065339723 0.572889839592 150.8489117 -119.1510883 280.596708647 -0.000108351904448 -0.000320215870637 0.000338050953595 -108.693474188 342.198612803
0.86257624336 0.0098914550734 1.50417516087 -0.479728017884 -1.4256231012 0 -1.69337222745 0 -1.69277993345 1.69337222745 -90 -0.479728017884 0.267749126249 0.549389291786 150.833064375 -119.166935625 278.260241804 -9.8911298666e-05 -0.000293909985354 0.000310107465015 -108.598236176 315.13785807
0.86380158518 0.0095786212728 1.44792172104 -0.458956934646 -1.3732561632 0 -1.62971222176 0 -1.62909163741 1.62971222176 -90 -0.458956934646 0.256456058558 0.525748246272 150.804330129 -119.195669871 271.621692559 -8.85507885636e-05 -0.000264913080106 0.000279321153106 -108.479766258 285.173320608
0.86502692642 0.0092657876148 1.39317130639 -0.438328538566 -1.32241835649 0 -1.56777946384 0 -1.5661487707 1.56777946384 -90 -0.438328538566 0.245361107348 0.502328619742 150.761110149 -119.238889851 257.508235416 -7.57158495227e-05 -0.000228351364183 0.000240577129799 -108.337532554 250.495273337
0.86621285098 0.0089630172276 1.34332751306 -0.419207983089 -1.27624035016 0 -1.51142098243 0 -1.50593217849 1.51142098243 -90 -0.419207983089 0.235180632261 0.480671756692 150.706656214 -119.293343786 234.748177346 -5.8108575476e-05 -0.0001767630271 0.000186069467995 -108.183085018 212.454953049
0.86720112193 0.0087107084507 1.31456136247 -0.407105055557 -1.2499333962 0 -1.47884471315 0 -1.45627304072 1.47884471315 -90 -0.407105055557 0.228911316949 0.467049239867 150.651353305 -119.348646695 209.477708352 -4.15589362949e-05 -0.00012750389068 0.000134105997607 -108.040808497 181.126754093
0.86802468143 0.0085004510435 1.31016989165 -0.403011750812 -1.24664617021 0 -1.47373427867 0 -1.41524900424 1.47373427867 -90 -0.403011750812 0.227088108453 0.462587808198 150.599713241 -119.400286759 186.472930954 -3.09412704753e-05 -9.57113936799e-05 0.00010058843422 -107.914815218 160.044602151
0.85421515453 0.012807220954 1.99593055488 -0.64413145828 -1.88913466246 0 -2.24990820875 0 -2.28726165162 2.24990820875 -90 -0.64413145828 0.360773546288 0.73828380342 150.747688656 -119.252311344 270.525137888 -0.00016408409986 -0.000481217783086 0.000508423430736 -108.829170302 538.973519797
0.85543408086 0.01247069628 1.96404431631 -0.633653761276 -1.85901844783 0 -2.21374254964 0 -2.21325088068 2.21374254964 -90 -0.633653761276 0.354724101813 0.726186190666 150.760345601 -119.239654399 271.391073841 -0.000159337882671 -0.000467451225906 0.000493861746434 -108.823249882 523.655607008
0.85665300692 0.012134171677 1.89956549943 -0.61233680783 -1.79816290368 0 -2.14062165529 0 -2.14010271727 2.14062165529 -90 -0.61233680783 0.342458751614 0.701594216523 150.783933576 -119.216066424 273.119924394 -0.000149776720611 -0.000439813411208 0.00046461712839 -108.80668134 492.980735846
0.8578719327 0.011797647152 1.83581788623 -0.590986082388 -1.73809097254 0 -2.0683538521 0 -2.06780690897 2.0683538521 -90 -0.590986082388 0.330262879557 0.677006780462 150.802703878 -119.197296122 274.758132193 -0.000140390917661 -0.000412875367214 0.000436091529105 -108.780070716 463.232914864
0.85909085816 0.011461122714 1.77279221635 -0.569574648975 -1.67880154606 0 -1.99692915464 0 -1.9963533434 1.99692915464 -90 -0.569574648975 0.318127608578 0.652395969883 150.815636058 -119.184363942 276.21449072 -0.000131149050544 -0.000386542149084 0.000408185044065 -108.741551679 434.287175139
0.86030978327 0.011124598371 1.71047932613 -0.548071319114 -1.62029474209 0 -1.92633773561 0 -1.92573204613 1.92633773561 -90 -0.548071319114 0.306042993515 0.627729654204 150.821446314 -119.178553686 277.26405434 -0.00012197360131 -0.000360580766213 0.000380652285625 -108.688862135 405.862086853
0.86152870799 0.010788074133 1.64887020007 -0.526441154962 -1.56257165284 0 -1.85656992667 0 -1.85593318015 1.85656992667 -90 -0.526441154962 0.293998273835 0.602972058497 150.818532092 -119.181467908 277.381020863 -0.000112695568381 -0.000334480308168 0.000352955353012 -108.619297359 377.359520403
0.86274763228 0.010451550013 1.58795605999 -0.504647816584 -1.50563347014 0 -1.78761622334 0 -1.78694704509 1.78761622334 -90 -0.504647816584 0.281982753203 0.578086259052 150.804934877 -119.195065123 275.425162181 -0.000102985076486 -0.000307231879493 0.000324033136785 -108.52972556 347.60957308
0.86396655609 0.010115026023 1.52772849136 -0.482659780905 -1.4494793319 0 -1.7194672894 0 -1.71876407597 1.7194672894 -90 -0.482659780905 0.269987957498 0.553040689692 150.778370671 -119.221629329 269.192060587 -9.22883499078e-05 -0.000277110135743 0.000292074127779 -108.416764014 314.60915248
0.86518547937 0.0097785021809 1.46910704915 -0.460813818615 -1.39496302148 0 -1.65316305055 0 -1.65137484366 1.65316305055 -90 -0.460813818615 0.258200029069 0.528220309447 150.737232039 -119.262767961 255.519660849 -7.89835506915e-05 -0.000239016082193 0.000251728453091 -108.279782505 276.375386797
0.8663651975 0.0094528022583 1.415736921 -0.44055781447 -1.34544250386 0 -1.59282302847 0 -1.58690017583 1.59282302847 -90 -0.44055781447 0.247380524612 0.505260716049 150.684674429 -119.315325571 233.20210261 -6.06643341582e-05 -0.000185120064898 0.00019480676679 -108.129988481 234.409455874
0.86734829641 0.0091813855317 1.36769472776 -0.422061403781 -1.30094178504 0 -1.53852698588 0 -1.53372654102 1.53852698588 -90 -0.422061403781 0.237585200847 0.484337310321 150.623795664 -119.376204336 203.424577305 -4.06253368898e-05 -0.000125121540532 0.000131551693945 -107.973961576 190.857373751
0.86816754585 0.0089552048302 1.34302492084 -0.411563027505 -1.27840870552 0 -1.51059455778 0 -1.48979710283 1.51059455778 -90 -0.411563027505 0.232185852253 0.472540436168 150.57024074 -119.42975926 177.371574266 -2.86148542371e-05 -8.88232998902e-05 9.33188120978e-05 -107.845482399 160.04877541
0.86885025398 0.0087667208393 1.34090499099 -0.408421679326 -1.27719142133 0 -1.50805907641 0 -1.45345236306 1.50805907641 -90 -0.408421679326 0.23086765508 0.469156841905 150.521918843 -119.478081157 155.993208139 -2.11810258752e-05 -6.62360151581e-05 6.95402441839e-05 -107.733293934 140.239937227
0.85444374868 0.013529377617 2.10557483087 -0.67562008125 -1.99423631777 0 -2.37337544849 0 -2.41314502071 2.37337544849 -90 -0.67562008125 0.379139130718 0.774731618742 150.700636299 -119.299363701 265.268311328 -0.000168751908203 -0.000498090856233 0.000525901113451 -108.717156673 588.117747181
0.8556556788 0.013169334722 2.07162019961 -0.664637387258 -1.96210687223 0 -2.33487058508 0 -2.33435696141 2.33487058508 -90 -0.664637387258 0.372763712852 0.762033972726 150.714778819 -119.285221181 266.30593977 -0.000163984671746 -0.000484090952511 0.00051111179568 -108.714507139 571.62172019
0.85686760867 0.012809291901 2.00295666387 -0.642283343946 -1.89718320911 0 -2.25701750962 0 -2.25648135021 2.25701750962 -90 -0.642283343946 0.359834300513 0.73621241571 150.741326679 -119.258673321 268.385059187 -0.000154366200815 -0.000455953707104 0.000481376050665 -108.704523884 538.554136033
0.85807953828 0.012449249159 1.93506733373 -0.619874555007 -1.83309525693 0 -2.18006707106 0 -2.17950745203 2.18006707106 -90 -0.619874555007 0.346971814132 0.710375943772 150.762933366 -119.237066634 270.375916267 -0.000144893957121 -0.000428466490404 0.000452302941556 -108.684361934 506.418802153
0.85929146758 0.012089206506 1.86794248577 -0.597383617417 -1.76984161342 0 -2.10400881237 0 -2.10342467666 2.10400881237 -90 -0.597383617417 0.334167198947 0.684496136039 150.778580001 -119.221419999 272.187830202 -0.000135537052608 -0.000401534646657 0.000423792991312 -108.652150854 475.084449873
0.86050339655 0.01172916395 1.80157250215 -0.574778769685 -1.70742213131 0 -2.0288324396 0 -2.02822257569 2.0288324396 -90 -0.574778769685 0.321410308288 0.658540251077 150.786985578 -119.213014422 273.597470207 -0.000126216712154 -0.000374919479577 0.000395594989671 -108.605625402 444.248056808
0.86171532515 0.011369121502 1.73594793138 -0.552024430002 -1.64583766067 0 -1.95452782376 0 -1.95389084258 1.95452782376 -90 -0.552024430002 0.308690163091 0.632471834783 150.786552382 -119.213447618 274.082712665 -0.000116758945783 -0.000348092014551 0.000367152312201 -108.542078207 413.258948247
0.86292725335 0.011009079174 1.67105958935 -0.529083663988 -1.58508914276 0 -1.88108500556 0 -1.88041931135 1.88108500556 -90 -0.529083663988 0.295995862803 0.606253336865 150.775330047 -119.224669953 272.510583093 -0.000106822167768 -0.000320002988333 0.00033736184107 -108.45837424 380.839218856
0.86413918109 0.010649036979 1.60689870403 -0.505924698217 -1.52517537582 0 -1.80849420085 0 -1.80779795598 1.80849420085 -90 -0.505924698217 0.283318825033 0.579852914536 150.751048046 -119.248951954 266.688342124 -9.58311665229e-05 -0.000288854037343 0.000304335999216 -108.351124571 344.797575993
0.86535110831 0.010288994935 1.54444510068 -0.482903838605 -1.46700716357 0 -1.73786326547 0 -1.73601689055 1.73786326547 -90 -0.482903838605 0.270856101903 0.553677896624 150.712085437 -119.287914563 253.465209336 -8.20992088439e-05 -0.000249327028729 0.00026249643218 -108.219596935 302.972409409
0.86652406049 0.00994053173 1.48758327072 -0.461549351904 -1.4141681742 0 -1.67358161808 0 -1.66733525473 1.67358161808 -90 -0.461549351904 0.259413443874 0.529455590825 150.661492454 -119.338507546 231.600696293 -6.31136381408e-05 -0.000193229600812 0.00020327589594 -108.074642717 257.015040894
0.86750152108 0.0096501455985 1.43639563738 -0.442042694614 -1.36668465491 0 -1.61573519551 0 -1.6106885106 1.61573519551 -90 -0.442042694614 0.249050540604 0.507373623668 150.602396744 -119.397603256 202.248142104 -4.23000938018e-05 -0.000130679239075 0.000137354990277 -107.922836476 209.286834783
0.8683160719 0.0094081570574 1.39411933346 -0.425783239436 -1.32750685844 0 -1.56797244438 0 -1.56388734067 1.56797244438 -90 -0.425783239436 0.240465585938 0.488993999184 150.543704007 -119.456295993 171.903482667 -2.78757783905e-05 -8.68474495759e-05 9.1211567504e-05 -107.782763243 167.539782473
0.86899486451 0.0092064998652 1.37318130046 -0.416796579974 -1.30839788998 0 -1.54426547266 0 -1.52516503059 1.54426547266 -90 -0.416796579974 0.235867582684 0.478908095921 150.494297918 -119.505702082 148.302199671 -1.95730820211e-05 -6.14061095019e-05 6.44501390701e-05 -107.66992734 139.867787195
0.86956052521 0.0090384521492 1.3731770904 -0.414560285112 -1.30910469085 0 -1.54412494569 0 -1.49308869312 1.54412494569 -90 -0.414560285112 0.235020254839 0.476544594111 150.450468612 -119.549531388 130.213230312 -1.45507173072e-05 -4.5948473518e-05 4.81973608488e-05 -107.57167511 122.766031076
0.85468487508 0.014247444775 2.16014812455 -0.691148862953 -2.046595507 0 -2.43482299297 0 -2.53780466966 2.43482299297 -90 -0.691148862953 0.388227485974 0.792721471657 150.676500031 -119.323499969 262.626665837 -0.000170945052248 -0.000506193954193 0.000534279449493 -108.660166257 612.739516096
0.85588955369 0.013863954592 2.14751095262 -0.685734859102 -2.03508404659 0 -2.42020721112 0 -2.4542894228 2.42020721112 -90 -0.685734859102 0.38512316453 0.786480908758 150.680869086 -119.319130914 262.494050449 -0.000165832257065 -0.000492124640357 0.000519314188011 -108.622347967 605.349657169
0.85709423206 0.013480464483 2.10540493974 -0.671454589351 -1.99546354884 0 -2.37233070816 0 -2.37173482376 2.37233070816 -90 -0.671454589351 0.376867159317 0.769987175323 150.696556018 -119.303443982 263.598100099 -0.000158489280734 -0.000470991910593 0.000496943106009 -108.59883069 584.395633355
0.85829891017 0.013096974455 2.03342643351 -0.648049662737 -1.92739497277 0 -2.29075870432 0 -2.29012969376 2.29075870432 -90 -0.648049662737 0.363363731543 0.74296814455 150.721158846 -119.278841154 265.932186606 -0.000148981658304 -0.000443079147545 0.000467455710073 -108.585276596 549.974436867
0.859503588 0.012713484517 1.96225344924 -0.624538192963 -1.86021174411 0 -2.21012608887 0 -2.20946300136 2.21012608887 -90 -0.624538192963 0.349914344764 0.715882723724 150.739670924 -119.260329076 268.094652601 -0.000139559748009 -0.000415669761627 0.000438472826511 -108.559538423 516.343252548
0.86070826551 0.012329994677 1.89187593888 -0.600887900514 -1.79391347779 0 -2.13042214249 0 -2.12972386103 2.13042214249 -90 -0.600887900514 0.336508664695 0.688697612747 150.750813735 -119.249186265 269.861238986 -0.000130141900375 -0.000388514688866 0.0004097324811 -108.519347086 483.171257991
0.86191294268 0.011946504948 1.82228403697 -0.577062620666 -1.72850080523 0 -2.05163631617 0 -2.05090153259 2.05163631617 -90 -0.577062620666 0.323135510934 0.661375737563 150.75299387 -119.24700613 270.713469232 -0.000120549262407 -0.000361067288277 0.000380659735238 -108.461991926 449.754154813
0.86311761946 0.011563015339 1.75346817209 -0.553024887035 -1.66397443705 0 -1.97375823535 0 -1.97298541924 1.97375823535 -90 -0.553024887035 0.309783798305 0.633878982988 150.744268176 -119.255731824 269.525641958 -0.00011042891313 -0.000332238893213 0.000350110487838 -108.384334112 414.703398011
0.86432229581 0.011179525867 1.68541922786 -0.528742733207 -1.60033284942 0 -1.89677770652 0 -1.89596506849 1.89677770652 -90 -0.528742733207 0.296444857097 0.606175287541 150.722377998 -119.277622002 264.120466572 -9.91861413036e-05 -0.000300163658371 0.000316126949515 -108.282978134 375.639417699
0.86552697168 0.010796036548 1.6191766194 -0.50459133686 -1.53854339687 0 -1.82186976407 0 -1.8198301705 1.82186976407 -90 -0.50459133686 0.283326367197 0.578693630694 150.685684487 -119.314315513 251.352940644 -8.50693071817e-05 -0.000259303027467 0.000272901044138 -108.157086107 330.207811848
0.86669291074 0.010424878508 1.55886161657 -0.482176887667 -1.48241364232 0 -1.7536908544 0 -1.74697701641 1.7536908544 -90 -0.482176887667 0.271277212085 0.553250363009 150.637124719 -119.362875281 229.946751383 -6.54608634729e-05 -0.000201104867155 0.000211490839083 -108.017140902 280.207558742
0.86766452704 0.010115580012 1.5045625426 -0.461693038836 -1.43197207911 0 -1.69233323905 0 -1.686885755 1.69233323905 -90 -0.461693038836 0.260361159942 0.530045732206 150.579855655 -119.420144345 201.029581524 -4.39135453469e-05 -0.000136097385793 0.00014300675234 -107.869711249 228.231067374
0.8684742076 0.0098578311657 1.45971451347 -0.444612911013 -1.39035346283 0 -1.64166846828 0 -1.63723603353 1.64166846828 -90 -0.444612911013 0.251315005446 0.510724918812 150.522692852 -119.477307148 171.026902258 -2.89603356089e-05 -9.04973523066e-05 9.50183347995e-05 -107.73313858 182.734661114
0.86914894165 0.0096430403848 1.42261915909 -0.430422637247 -1.35594222747 0 -1.5997704658 0 -1.59615502814 1.5997704658 -90 -0.430422637247 0.243828238327 0.494687691553 150.46891491 -119.53108509 143.735269527 -1.9043463418e-05 -5.99538909611e-05 6.29056972893e-05 -107.611101072 145.817753545
0.8697112202 0.0094640480105 1.4042646808 -0.423392983646 -1.33891648502 0 -1.57904185668 0 -1.56212354035 1.57904185668 -90 -0.423392983646 0.240125371655 0.486746155242 150.440666185 -119.559333815 129.950043188 -1.48323444067e-05 -4.69049297924e-05 4.9194219922e-05 -107.548539739 128.179387184
0.85613481681 0.01455464618 2.24442497729 -0.711765207223 -2.12857435795 0 -2.52907469442 0 -2.57305557084 2.52907469442 -90 -0.711765207223 0.400500336464 0.81670701875 150.634651105 -119.365348895 257.456665254 -0.000166851690516 -0.000498963515447 0.000526121991206 -108.490512869 648.515634164
0.8573315807 0.014147934502 2.20685917879 -0.69983142372 -2.09295458098 0 -2.48650260645 0 -2.48590354274 2.48650260645 -90 -0.69983142372 0.393548025475 0.802897396262 150.649663234 -119.350336766 258.78917473 -0.000162164266387 -0.000484962672514 0.000511357298568 -108.489893719 630.317083238
0.85852834435 0.013741222905 2.13084381255 -0.675492019485 -2.02094089656 0 -2.40036998984 0 -2.39974638822 2.40036998984 -90 -0.675492019485 0.379429093287 0.774761915126 150.67742027 -119.32257973 261.451881788 -0.000152665397002 -0.000456731166018 0.000481570633084 -108.483082834 593.716954297
0.85972510773 0.013334511399 2.05567347548 -0.651018816218 -1.94986273607 0 -2.31522205659 0 -2.31457268558 2.31522205659 -90 -0.651018816218 0.36535932052 0.746534004412 150.698947026 -119.301052974 263.952516663 -0.000143221301167 -0.000428947139178 0.000452225769702 -108.46395976 557.883173154
0.86092187082 0.012927799992 1.98133771378 -0.626379068596 -1.87971950755 0 -2.2310477051 0 -2.2303711609 2.2310477051 -90 -0.626379068596 0.351328197548 0.718179853996 150.712967272 -119.287032728 266.069544692 -0.000133749263436 -0.000401356738376 0.000423055826769 -108.430251094 522.463961948
0.86211863358 0.012521088696 1.90782626994 -0.601536081387 -1.81051165195 0 -2.14783600797 0 -2.14713068831 2.14783600797 -90 -0.601536081387 0.337324356014 0.689661819374 150.717891439 -119.282108561 267.285499293 -0.000124063926894 -0.000373390796372 0.000393462414384 -108.379242283 486.69343397
0.86331539597 0.012114377522 1.83512920422 -0.576451910608 -1.74223967458 0 -2.06557621653 0 -2.06484028796 2.06557621653 -90 -0.576451910608 0.323336541945 0.660941273008 150.71178277 -119.28821723 266.480714276 -0.000113800642113 -0.000343919945477 0.000362259084004 -108.307790131 449.06694876
0.86451215796 0.011707666486 1.76323706981 -0.551094445759 -1.674901753 0 -1.98425776783 0 -1.98348912628 1.98425776783 -90 -0.551094445759 0.309356014832 0.631985982824 150.692393095 -119.307606905 261.497063238 -0.000102347239324 -0.000311016796367 0.000327424101932 -108.212492088 407.017853234
0.8657089195 0.011300955604 1.6932481973 -0.525857060737 -1.60952133394 0 -1.90512212799 0 -1.90306651515 1.90512212799 -90 -0.525857060737 0.295600794042 0.603245846033 150.658061741 -119.341938259 249.189494635 -8.78870437052e-05 -0.000268920750474 0.000282918075692 -108.092401252 357.983172637