TITLE = "Electromagnetic Field"
VARIABLES = X Y E ER EI EvR EvI EvR' EvI' Ev EvPhase EpR EpI Ep EpPhase EpToEvPhaseShift elConductivity Jr Ji J Jphase QJ
ZONE N=296, E=260, F=FEPOINT, ET=QUADRILATERAL
0.87608574273 0.015644000322 2.24376790669 -0.621101974086 -2.15609061889 0 -2.51886118837 0 -2.49899066517 2.51886118837 -90 -0.621101974086 0.362770569484 0.719284469662 149.711837577 -120.288162423 0.0312927074849 -4.25373060522e-10 -1.4766381425e-09 1.53668553859e-09 -106.070029134 0.0787714805954
0.87612809851 0.015608592576 2.24147022482 -0.62037367312 -2.15390929785 0 -2.51627293661 0 -2.49282020383 2.51627293661 -90 -0.62037367312 0.362363638763 0.718450347138 149.710565122 -120.289434878 0.0237850147653 -3.07791285052e-10 -1.06855847881e-09 1.11200391179e-09 -106.067571517 0.0597967637944
0.876163395 0.01557908612 2.23679309711 -0.618891483011 -2.14946893066 0 -2.51100433825 0 -2.48768002737 2.51100433825 -90 -0.618891483011 0.36153540759 0.71675275995 149.70797554 -120.29202446 0.0109799839184 -1.18212602684e-10 -4.10536623543e-10 4.27217203428e-10 -106.062569151 0.027487234098
0.87619280873 0.015554497407 2.23289678323 -0.617657357651 -2.14576965861 0 -2.50661531307 0 -2.48339784888 2.50661531307 -90 -0.617657357651 0.360845654461 0.715339218797 149.705819433 -120.294180567 0.00463153002715 -4.15855969169e-11 -1.44461526376e-10 1.50327956448e-10 -106.058402509 0.0115537486281
0.87621732018 0.015534006813 2.22965075326 -0.61662963725 -2.14268765066 0 -2.50295881607 0 -2.47983027046 2.50295881607 -90 -0.61662963725 0.360271165404 0.714162042017 149.704023995 -120.295976005 0.00168611581437 -1.26600533256e-11 -4.39891092157e-11 4.57746510713e-11 -106.054931701 0.00419388530334
0.87623774638 0.015516931318 2.2269463517 -0.615773701552 -2.14011980956 0 -2.49991244591 0 -2.47685791603 2.49991244591 -90 -0.615773701552 0.359792636352 0.713181598729 149.702528722 -120.297471278 0.000488014512081 -3.0723127789e-12 -1.06772246606e-11 1.11104559895e-11 -106.052040332 0.00121089941025
0.87625476822 0.015502701739 2.22469311717 -0.615060767724 -2.13798028893 0 -2.49737429823 0 -2.47438138963 2.49737429823 -90 -0.615060767724 0.359394009304 0.712364935946 149.701283308 -120.298716692 0.000100060646787 -5.28726439845e-13 -1.83778108897e-12 1.91232606518e-12 -106.049631537 0.000247773591148
0.87626895309 0.015490843756 2.22281572218 -0.614466896239 -2.13619759549 0 -2.49525951767 0 -2.47231792003 2.49525951767 -90 -0.614466896239 0.359061922187 0.711684642642 149.700245916 -120.299754084 1.26910777417e-05 -5.61683223959e-14 -1.95260093817e-13 2.03178209166e-13 -106.04762468 3.13716226973e-05
0.87628077381 0.015480962104 2.22125143549 -0.613972170189 -2.13471218507 0 -2.49349743897 0 -2.47059857221 2.49349743897 -90 -0.613972170189 0.358785253903 0.711117911607 149.699381739 -120.300618261 9.29809511952e-07 -3.43772643556e-15 -1.19520854995e-14 1.24366519142e-14 -106.045952629 2.2950413539e-06
0.87629062441 0.015472727394 2.21994800817 -0.613560014249 -2.13347445903 0 -2.49202920526 0 -2.46916592826 2.49202920526 -90 -0.613560014249 0.358554746233 0.710645760662 149.698661812 -120.301338188 4.0340004442e-08 -1.2439876013e-16 -4.32544548029e-16 4.50077590593e-16 -106.044559482 9.94466436111e-08
0.87629883324 0.015465865135 2.21930690697 -0.613357310205 -2.13286566791 0 -2.49130704322 0 -2.4679721595 2.49130704322 -90 -0.613357310205 0.358441375314 0.710413548237 149.698307748 -120.301692252 1.99628009432e-09 -5.14393339599e-18 -1.7887320744e-17 1.86122619308e-17 -106.043874272 4.91616227856e-09
0.87633605885 0.015952115938 2.26462266844 -0.625882801354 -2.17641575115 0 -2.54219100079 0 -2.54492123937 2.54219100079 -90 -0.625882801354 0.365775249638 0.724928166637 149.697457446 -120.302542554 0.0308353650937 -4.26186112422e-10 -1.48198558542e-09 1.54204940074e-09 -106.044147436 0.0790552030112
0.87637785957 0.015916058 2.26230747446 -0.625151407857 -2.17421705293 0 -2.53958315459 0 -2.53865256224 2.53958315459 -90 -0.625151407857 0.36536610166 0.724090259306 149.696206125 -120.303793875 0.0234296234491 -3.08292102218e-10 -1.07212181115e-09 1.11556687345e-09 -106.041731973 0.0599920691607
0.87641269351 0.015886009718 2.25759481793 -0.623662953954 -2.16974142775 0 -2.53427480348 0 -2.53343054075 2.53427480348 -90 -0.623662953954 0.364533375728 0.722385004238 149.693659602 -120.306340398 0.0108012831214 -1.18250983926e-10 -4.11366934205e-10 4.28025801026e-10 -106.036815455 0.0275392064155
0.87644172179 0.015860969483 2.25366889575 -0.622423595415 -2.16601277755 0 -2.5298526495 0 -2.52908015885 2.5298526495 -90 -0.622423595415 0.363839871949 0.720965059065 149.691539308 -120.308460692 0.00454609385568 -4.15087764153e-11 -1.44438241435e-10 1.50284359082e-10 -106.032720158 0.0115496440871
0.87646591202 0.015840102621 2.25039819109 -0.621391504448 -2.16290628988 0 -2.52616854364 0 -2.52545574512 2.52616854364 -90 -0.621391504448 0.363262253756 0.719782535468 149.689773662 -120.310226338 0.00164942460238 -1.25941824843e-11 -4.38337474096e-11 4.56071403858e-11 -106.029308662 0.00417800056566
0.87648607055 0.015822713568 2.24767322726 -0.620531920007 -2.1603180512 0 -2.52309916588 0 -2.52243602801 2.52309916588 -90 -0.620531920007 0.362781114681 0.718797629553 149.688303174 -120.311696826 0.000474996339316 -3.04087705686e-12 -1.05856086708e-11 1.10137218045e-11 -106.026466618 0.00120014475776
0.87650286933 0.015808222692 2.24540285536 -0.619815940401 -2.15816153204 0 -2.52054184266 0 -2.51992003328 2.52054184266 -90 -0.619815940401 0.362380310619 0.717977242432 149.687078385 -120.312921615 9.66945015931e-05 -5.19508849987e-13 -1.80872835215e-12 1.88185769617e-12 -106.024098854 0.000243783602411
0.8765168683 0.015796146961 2.24351118046 -0.619219527737 -2.15636467547 0 -2.51841108378 0 -2.51782367374 2.51841108378 -90 -0.619219527737 0.362046408312 0.717293842371 149.686058156 -120.313941844 1.21531269644e-05 -5.46786837333e-14 -1.9039259351e-13 1.98088631061e-13 -106.022126135 3.05818687629e-05
0.87652853412 0.015786083852 2.24193499557 -0.618722682117 -2.1548674649 0 -2.51663569169 0 -2.51607691756 2.51663569169 -90 -0.618722682117 0.361768226796 0.716724520414 149.685208263 -120.314791737 8.82579619769e-07 -3.3165816009e-15 -1.15495651127e-14 1.20163303813e-14 -106.020482493 2.2172567169e-06
0.87653825563 0.015777697928 2.24062165059 -0.618308757639 -2.15361990351 0 -2.51515636067 0 -2.51462143348 2.51515636067 -90 -0.618308757639 0.361536457153 0.716250207959 149.684500229 -120.315499771 3.799984104e-08 -1.19085786382e-16 -4.14735180314e-16 4.31493604069e-16 -106.019112997 9.53320150375e-08
0.87654635689 0.015770709658 2.24568657586 -0.619392227352 -2.15857836728 0 -2.52081515493 0 -2.51340863143 2.52081515493 -90 -0.619392227352 0.362236787651 0.71753902334 149.679884448 -120.320115552 1.31544482674e-09 -3.44420430041e-18 -1.19958100502e-17 1.24804660214e-17 -106.010750316 3.29630010769e-09
0.87655310794 0.0157648861 2.25889604738 -0.622335805719 -2.17147634054 0 -2.53558407155 0 -2.5123980335 2.53558407155 -90 -0.622335805719 0.364107731014 0.721024475917 149.669534126 -120.330465874 4.44067769729e-16 -9.8530274105e-25 -3.43786685517e-24 3.57627599681e-24 -105.992075426 1.13333021449e-15
0.87655873382 0.015760033134 2.25813029896 -0.622095340308 -2.17074868063 0 -2.53472159085 0 -2.51155591721 2.53472159085 -90 -0.622095340308 0.363972910215 0.720748841004 149.669131552 -120.330868448 8.9591831457e-20 -1.65523967679e-28 -5.77569652769e-28 6.00820179152e-28 -105.991296854 2.28484603393e-19
0.87656342205 0.015755988997 2.25749220915 -0.621894978666 -2.17014232476 0 -2.53400289553 0 -2.51085418782 2.53400289553 -90 -0.621894978666 0.363860570761 0.720519173546 149.668796119 -120.331203881 6.3977930081e-23 -9.84469322533e-32 -3.43530854843e-31 3.57358708722e-31 -105.990648085 1.63062181268e-22
0.8765673289 0.015752618882 2.2569604906 -0.62172802865 -2.1696370467 0 -2.53340400894 0 -2.51026943688 2.53340400894 -90 -0.62172802865 0.363766962235 0.720327803452 149.668516623 -120.331483377 2.04071756204e-26 -2.61556286282e-35 -9.12736597791e-35 9.49473426611e-35 -105.990107473 5.19857901168e-26
0.87657058462 0.015749810453 2.25669897888 -0.621645921499 -2.16938853817 0 -2.53310946247 0 -2.50978216068 2.53310946247 -90 -0.621645921499 0.3637209243 0.720233686028 149.668379165 -120.331620835 4.90867663582e-30 -5.24072082516e-39 -1.82888028324e-38 1.90248643572e-38 -105.989841588 1.24991848985e-29
0.87659121236 0.016265914276 2.30563971278 -0.635231998241 -2.21640558183 0 -2.58807108711 0 -2.59156986581 2.58807108711 -90 -0.635231998241 0.371665505276 0.735972128741 149.668793092 -120.331206908 0.0301602629314 -4.26944035117e-10 -1.48964336974e-09 1.54961900825e-09 -105.992776371 0.0801612566387
0.87663244876 0.01622924135 2.30328954524 -0.634494535428 -2.21417215196 0 -2.58542411863 0 -2.58520923601 2.58542411863 -90 -0.634494535428 0.371251966673 0.735126773581 149.667584415 -120.332415585 0.0229080328964 -3.08744062306e-10 -1.07732307528e-09 1.12069093134e-09 -105.990445225 0.0608091260913
0.87666681243 0.016198680578 2.2985058141 -0.632993751359 -2.20962594297 0 -2.58003626176 0 -2.57991058546 2.58003626176 -90 -0.632993751359 0.370410318794 0.733406386704 149.665124739 -120.334875261 0.010542866165 -1.18237965391e-10 -4.12708345954e-10 4.29311580263e-10 -105.985700294 0.0278677134602
0.87669544882 0.016173213268 2.29452066362 -0.631744092049 -2.20583848217 0 -2.5755478518 0 -2.57549634469 2.5755478518 -90 -0.631744092049 0.369709369628 0.731973804171 149.663076758 -120.336923242 0.00442262661 -4.13724503678e-11 -1.44448202493e-10 1.50256339079e-10 -105.98174762 0.0116490708146
0.87671931248 0.01615199051 2.29120060116 -0.630703398724 -2.20268299094 0 -2.57180853026 0 -2.57181871423 2.57180853026 -90 -0.630703398724 0.369125539324 0.730780729638 149.661371332 -120.338628668 0.00159567965208 -1.24847731848e-11 -4.35989073396e-11 4.53512370006e-11 -105.978454715 0.00419060848596
0.87673919886 0.016134304878 2.28843450538 -0.629836632727 -2.20005391982 0 -2.56869313791 0 -2.56875464952 2.56869313791 -90 -0.629836632727 0.368639218088 0.729787017332 149.659951 -120.340049 0.0004554665538 -2.98831845704e-12 -1.04375487086e-11 1.08569099611e-11 -105.975711308 0.00119319190106
0.87675577085 0.016119566852 2.28612986102 -0.629114660412 -2.19786338072 0 -2.56609747308 0 -2.56620169785 2.56609747308 -90 -0.629114660412 0.368234092363 0.728959282922 149.658767987 -120.341232013 9.15097905758e-05 -5.03909574433e-13 -1.76029962932e-12 1.8310052743e-12 -105.973425603 0.000239219642981
0.87676958083 0.016107285163 2.28420962337 -0.628513246906 -2.19603817403 0 -2.56393475967 0 -2.56407454061 2.56393475967 -90 -0.628513246906 0.367896585631 0.728269752586 149.657782559 -120.342217441 1.1309006391e-05 -5.21501692653e-14 -1.82196835134e-13 1.89513413892e-13 -105.971521171 2.95084024181e-05
0.87678108916 0.016097050423 2.28260963397 -0.628012228929 -2.19451733768 0 -2.56213273587 0 -2.56230211957 2.56213273587 -90 -0.628012228929 0.367615398194 0.727695316613 149.656961661 -120.343038339 8.07879396291e-07 -3.1117364319e-15 -1.08725317416e-14 1.13090616549e-14 -105.96993437 2.10461658227e-06
0.87679067943 0.016088521472 2.28127645456 -0.627594824943 -2.19325009179 0 -2.56063121444 0 -2.56082524776 2.56063121444 -90 -0.627594824943 0.367381122646 0.727216739778 149.656277781 -120.343722219 3.43189954127e-08 -1.10246579071e-16 -3.85238435154e-16 4.00703121969e-16 -105.968612188 8.92853745322e-08
0.87679867132 0.016081414013 2.28016557193 -0.627247065248 -2.1921941348 0 -2.5593800606 0 -2.55959462255 2.5593800606 -90 -0.627247065248 0.367185925802 0.726818008804 149.655708023 -120.344291977 9.10535494872e-10 -2.44394278007e-18 -8.54055701175e-18 8.88335443409e-18 -105.967510477 2.36627233448e-09
0.87680533123 0.016075491131 2.27923990553 -0.626957318815 -2.19131422659 0 -2.55833751104 0 -2.55856917192 2.55833751104 -90 -0.626957318815 0.367023284446 0.726485790517 149.655233323 -120.344766677 4.15441136322e-16 -9.28223354842e-25 -3.24383007664e-24 3.37402347462e-24 -105.96659246 1.07821219522e-15
0.87681088115 0.016070555396 2.27846856525 -0.626715900541 -2.19058100902 0 -2.5574687748 0 -2.55771467864 2.5574687748 -90 -0.626715900541 0.366887765781 0.726208981968 149.654837808 -120.345162192 8.34131374201e-20 -1.55179192574e-28 -5.42324305353e-28 5.64088908429e-28 -105.965827496 2.16307170605e-19
0.87681550609 0.016066442283 2.27782582037 -0.626514745574 -2.18997002658 0 -2.55674487184 0 -2.55700263464 2.55674487184 -90 -0.626514745574 0.366774845263 0.725978337356 149.654508256 -120.345491744 5.92822657834e-23 -9.18516959096e-32 -3.21017561705e-31 3.33899731764e-31 -105.965190056 1.5362303852e-22
0.8768193602 0.016063014689 2.27729022001 -0.626347133616 -2.18946089058 0 -2.55614164259 0 -2.5564092883 2.55614164259 -90 -0.626347133616 0.366680752011 0.725786151986 149.654233664 -120.345766336 1.88230406024e-26 -2.42910857848e-35 -8.48987731327e-35 8.83054927961e-35 -105.964658883 4.87485759311e-26
0.87682257196 0.016060158361 2.27702679508 -0.626264699921 -2.18921048072 0 -2.55584495578 0 -2.55591484939 2.55584495578 -90 -0.626264699921 0.366634475061 0.72569163243 149.654098622 -120.345901378 4.49802849084e-30 -4.83504776894e-39 -1.6899108247e-38 1.75771899625e-38 -105.964397645 1.16427281929e-29
0.87685471031 0.016572742746 2.34623503849 -0.644366215661 -2.25601637635 0 -2.63346854083 0 -2.63687529555 2.63346854083 -90 -0.644366215661 0.37745216448 0.74677840981 149.639495733 -120.360504267 0.029250171866 -4.19968701445e-10 -1.47030963628e-09 1.5291123645e-09 -105.940691026 0.0804821252913
0.87689538326 0.016535454872 2.34385114097 -0.643623227901 -2.25374935646 0 -2.6307838679 0 -2.63042375243 2.6307838679 -90 -0.643623227901 0.377034511446 0.745926215792 149.638329605 -120.361670395 0.022200520968 -3.03506314893e-10 -1.06265897264e-09 1.10515176815e-09 -105.938443718 0.0610075520465
0.87692927739 0.016504381644 2.33899874525 -0.642111185747 -2.24913477161 0 -2.62531925549 0 -2.62504933786 2.62531925549 -90 -0.642111185747 0.376184483874 0.744191895541 149.635956516 -120.364043484 0.0101862894309 -1.15886614786e-10 -4.05874718146e-10 4.22094813081e-10 -105.93386935 0.0278731669327
0.8769575225 0.016478487287 2.33495637351 -0.640852123525 -2.24529033748 0 -2.62076688154 0 -2.62057195824 2.62076688154 -90 -0.640852123525 0.375476544053 0.742747679635 149.633980628 -120.366019372 0.00425228188096 -4.03552602978e-11 -1.41373357279e-10 1.47020330662e-10 -105.930058602 0.0115943208067
0.87698106009 0.016456908657 2.3315886275 -0.639803580395 -2.24208737427 0 -2.6169742576 0 -2.6168417108 2.6169742576 -90 -0.639803580395 0.374886883339 0.74154489596 149.632335234 -120.367664766 0.00152291919698 -1.20889633693e-11 -4.23589285711e-11 4.40502243098e-11 -105.926883828 0.00414000950498
0.87700067474 0.016438926464 2.32878279474 -0.638930263123 -2.23941874585 0 -2.61381444587 0 -2.61373379747 2.61381444587 -90 -0.638930263123 0.374395700018 0.740543082487 149.630964898 -120.369035102 0.000429966493216 -2.86219070533e-12 -1.00305730475e-11 1.04309421159e-11 -105.924238776 0.00116589103155
0.87701702029 0.016423941304 2.32644503405 -0.638202824366 -2.23719524253 0 -2.61118176255 0 -2.61114430463 2.61118176255 -90 -0.638202824366 0.373986520023 0.739708589703 149.629823527 -120.370176473 8.50550107593e-05 -4.75169205539e-13 -1.665452759e-12 1.73191202829e-12 -105.922034975 0.000230128062198
0.87703064158 0.016411453671 2.32449720099 -0.637596851431 -2.2353425687 0 -2.60898820218 0 -2.60898669597 2.60898820218 -90 -0.637596851431 0.373645633482 0.739013423224 149.628872785 -120.371127215 1.0307911156e-05 -4.82171849407e-14 -1.69017321025e-13 1.75760513082e-13 -105.920198758 2.78353640643e-05
0.87704199266 0.01640104731 2.32287421341 -0.637092030444 -2.23379884219 0 -2.60716047044 0 -2.60718889837 2.60716047044 -90 -0.637092030444 0.373361628257 0.738434286789 149.628080783 -120.371919217 7.22190492533e-07 -2.82134279029e-15 -9.89058722167e-15 1.02851209022e-14 -105.918668779 1.94689967229e-06
0.87705145189 0.016392375342 2.32152187095 -0.636671455711 -2.23251252395 0 -2.60563752814 0 -2.60569087925 2.60563752814 -90 -0.636671455711 0.373125004191 0.73795179135 149.627420974 -120.372579026 3.01799370849e-08 -9.83245481715e-17 -3.44713684219e-16 3.58462364224e-16 -105.91739393 8.12424521045e-08
0.87705933458 0.016385148702 2.32039501884 -0.636321052265 -2.23144067355 0 -2.60436852331 0 -2.60444263111 2.60436852331 -90 -0.636321052265 0.372927849761 0.737549793355 149.626871269 -120.373128731 7.89615887138e-10 -2.14922802965e-18 -7.5353511637e-18 7.83586054765e-18 -105.916331653 2.12301715857e-09
0.87706590349 0.016379126503 2.31945604438 -0.636029101721 -2.23054752104 0 -2.60331109781 0 -2.60340249467 2.60331109781 -90 -0.636029101721 0.372763576765 0.737214851532 149.626413278 -120.373586722 3.32867089735e-16 -7.5402789092e-25 -2.64357517025e-24 2.74900877093e-24 -105.91544649 8.93266341937e-16
0.87707137758 0.016374108003 2.31867361694 -0.635785846671 -2.22980326959 0 -2.60242996819 0 -2.60253576296 2.60242996819 -90 -0.635785846671 0.372626698601 0.736935773455 149.626031682 -120.373968318 6.55973622317e-20 -1.23717525875e-28 -4.33757649272e-28 4.51056276034e-28 -105.914708897 1.75859086213e-19
0.87707593932 0.01636992592 2.31802162689 -0.635583159278 -2.22918308669 0 -2.60169573088 0 -2.60181352046 2.60169573088 -90 -0.635583159278 0.37251264419 0.736703235535 149.625713732 -120.374286268 4.5778833033e-23 -7.19026705265e-32 -2.52097777352e-31 2.6215128586e-31 -105.91409427 1.22621582874e-22
0.87707974077 0.01636644085 2.31747832236 -0.635414270036 -2.22866628391 0 -2.60108388987 0 -2.60121167507 2.60108388987 -90 -0.635414270036 0.37241760596 0.736509472146 149.625448807 -120.374551193 1.42867456565e-26 -1.86888369379e-35 -6.55257078521e-35 6.8138769497e-35 -105.913582105 3.82392045541e-26
0.87708290865 0.016363536626 2.31721111227 -0.635331208954 -2.22841210719 0 -2.60078297198 0 -2.6007101537 2.60078297198 -90 -0.635331208954 0.372370864785 0.736414177454 149.625318516 -120.374681484 3.34521299296e-30 -3.6447834152e-39 -1.27791873251e-38 1.32887963545e-38 -105.913330211 8.94750429056e-30
0.8771225232 0.016875811839 2.38612700335 -0.65323229822 -2.29497025327 0 -2.67806914593 0 -2.681399664 2.67806914593 -90 -0.65323229822 0.38309889266 0.757282797534 149.609904866 -120.390095134 0.0284995995373 -4.14719039912e-10 -1.45700620088e-09 1.51487934371e-09 -105.888504158 0.0811351565176
0.87716262257 0.016837918407 2.3837102539 -0.652484205331 -2.29267044196 0 -2.67534777323 0 -2.67485964303 2.67534777323 -90 -0.652484205331 0.382677331265 0.756424230563 149.608781381 -120.391218619 0.0216192477547 -2.99575236967e-10 -1.0525602742e-09 1.09436223537e-09 -105.886340076 0.0614708751052
0.87719603871 0.016806340547 2.3787909748 -0.650961756427 -2.28798910136 0 -2.66980844307 0 -2.66941149197 2.66980844307 -90 -0.650961756427 0.381819341709 0.754676921644 149.606495068 -120.393504932 0.00989678564775 -1.14133006736e-10 -4.0112769746e-10 4.17048928437e-10 -105.881934999 0.028022285932
0.8772238855 0.016780025664 2.37469286677 -0.649693997901 -2.2840890454 0 -2.6651938033 0 -2.66487266184 2.6651938033 -90 -0.649693997901 0.3811047579 0.753221856457 149.604591423 -120.395408577 0.00411514579353 -3.95920660609e-11 -1.39183357269e-10 1.44705020359e-10 -105.878265067 0.0116113337983
0.87724709115 0.016758096594 2.37127867343 -0.648638191096 -2.28083973587 0 -2.66134929012 0 -2.66109120304 2.66134929012 -90 -0.648638191096 0.380509554252 0.752010013998 149.603006181 -120.396993819 0.00146462856383 -1.17878798513e-11 -4.14480039705e-11 4.30916641833e-11 -105.875207459 0.00412064463426
0.8772664292 0.016739822369 2.36843413308 -0.647758808897 -2.27813248798 0 -2.6581462353 0 -2.65794061196 2.6581462353 -90 -0.647758808897 0.380013747319 0.751000638967 149.601685936 -120.398314064 0.000409584224778 -2.7646935278e-12 -9.72271993372e-12 1.01081568e-11 -105.872659921 0.00114954513505
0.87728254423 0.016724593849 2.36606411541 -0.647026307813 -2.27587680385 0 -2.65547751508 0 -2.65531555341 2.65547751508 -90 -0.647026307813 0.37960071123 0.750159836191 149.600586281 -120.399413719 7.99081884015e-05 -4.52674861197e-13 -1.59216115446e-12 1.65526198057e-12 -105.870537295 0.000223808008319
0.87729597343 0.016711903415 2.36408940167 -0.646416110768 -2.27399731468 0 -2.65325392393 0 -2.65312830558 2.65325392393 -90 -0.646416110768 0.379256609256 0.749459405586 149.599670284 -120.400329716 9.51473689512e-06 -4.51292324539e-14 -1.58748042678e-13 1.65038159688e-13 -105.868768663 2.66013442336e-05
0.87730716443 0.016701328053 2.36244401299 -0.645907765674 -2.27243124284 0 -2.65140116583 0 -2.65130580812 2.65140116583 -90 -0.645907765674 0.378969922993 0.748875878133 149.598907222 -120.401092778 6.54972564781e-07 -2.59450186841e-15 -9.12738899042e-15 9.48897717303e-15 -105.867294962 1.82838221065e-06
0.87731649026 0.016692515252 2.36107300258 -0.645484251415 -2.27112630403 0 -2.64985736773 0 -2.64978720563 2.64985736773 -90 -0.645484251415 0.378731063693 0.748389720582 149.59827152 -120.40172848 2.69657124144e-08 -8.90838126685e-17 -3.1342073053e-16 3.2583508292e-16 -105.866066983 7.51804264361e-08
0.87732426179 0.016685171251 2.3599305969 -0.645131397177 -2.27003894012 0 -2.64857098644 0 -2.64852180429 2.64857098644 -90 -0.645131397177 0.37853204632 0.747984669671 149.597741896 -120.402258104 6.96508968664e-10 -1.92242031374e-18 -6.76406799819e-18 7.03195034329e-18 -105.86504374 1.93985080843e-09
0.87733073806 0.01667905125 2.35897865982 -0.644837402705 -2.26913285883 0 -2.64749907904 0 -2.64746737325 2.64749907904 -90 -0.644837402705 0.378366220207 0.747647182026 149.597300633 -120.402699367 2.71685652315e-16 -6.24303770232e-25 -2.19672520481e-24 2.28371580187e-24 -105.864191092 7.55902883501e-16
0.87733613495 0.01667395125 2.35818542456 -0.644592442226 -2.26837782821 0 -2.64660587486 0 -2.64658872947 2.64660587486 -90 -0.644592442226 0.378228046655 0.747365979997 149.596932979 -120.403067021 5.2518775676e-20 -1.00488835765e-28 -3.53605621878e-28 3.67607084906e-28 -105.863480592 1.46013112123e-19
0.87734063237 0.016669701249 2.35752443194 -0.644388333893 -2.26774866673 0 -2.64586157981 0 -2.64585655979 2.64586157981 -90 -0.644388333893 0.378112913086 0.7471316725 149.596626641 -120.403373359 3.59529462254e-23 -5.7294976572e-32 -2.01620980293e-31 2.0960377569e-31 -105.86288853 9.98946313011e-23
0.87734438021 0.016666159582 2.35697362646 -0.644218260373 -2.26722438309 0 -2.64524135867 0 -2.64524644205 2.64524135867 -90 -0.644218260373 0.378016975571 0.746936434328 149.596371391 -120.403628609 1.10130712997e-26 -1.46184170915e-35 -5.14439462036e-35 5.3480634704e-35 -105.862395164 3.0583717268e-26
0.87734750341 0.016663208193 2.35670272381 -0.644134615965 -2.26696652382 0 -2.64493631541 0 -2.64473802689 2.64493631541 -90 -0.644134615965 0.377969791583 0.746840413287 149.59624586 -120.40375414 2.52197247875e-30 -2.78849105246e-39 -9.81327200945e-39 1.02017650714e-38 -105.862152518 7.00031890808e-30
0.8773913095 0.017178014415 2.42531589303 -0.661833253967 -2.33326652916 0 -2.72187338507 0 -2.72564618797 2.72187338507 -90 -0.661833253967 0.388606855907 0.767488491789 149.580034625 -120.419965375 0.0280245751528 -4.13107707231e-10 -1.45635823282e-09 1.51381562907e-09 -105.836246883 0.0824085507706
0.87743081608 0.017139533267 2.42286717855 -0.66108045598 -2.33093474036 0 -2.7191163221 0 -2.71902138638 2.7191163221 -90 -0.66108045598 0.38818158174 0.766623995346 149.578953925 -120.421046075 0.0212558032019 -2.98373739517e-10 -1.05195611843e-09 1.09345270327e-09 -105.834165047 0.0624262810977
0.87746373823 0.017107465644 2.417882827 -0.659548414651 -2.32618830657 0 -2.71350433455 0 -2.71350257701 2.71350433455 -90 -0.659548414651 0.387316027977 0.764864600345 149.576754706 -120.423245294 0.00972201493905 -1.13582753307e-10 -4.00565661811e-10 4.16357931739e-10 -105.829927241 0.0284327644164
0.87749117335 0.017080742625 2.41373049004 -0.658272634754 -2.32223401345 0 -2.70882914222 0 -2.70890485968 2.70882914222 -90 -0.658272634754 0.386595128769 0.763399433403 149.574923629 -120.425076371 0.00403332146349 -3.93141378511e-11 -1.38679495192e-10 1.44144400214e-10 -105.826396382 0.0117544253897
0.87751403596 0.017058473442 2.41027110485 -0.657210124025 -2.31893951155 0 -2.70493416533 0 -2.70507432431 2.70493416533 -90 -0.657210124025 0.385994653781 0.762179151652 149.57339886 -120.42660114 0.001429400959 -1.16560557238e-11 -4.11243012048e-11 4.27442646433e-11 -105.82345444 0.00415352719518
0.87753308813 0.01703991579 2.40738890761 -0.656325142325 -2.3161946107 0 -2.70168905919 0 -2.70188283371 2.70168905919 -90 -0.656325142325 0.385494448483 0.761162729868 149.572129011 -120.427870989 0.000396889419042 -2.71442240162e-12 -9.57837469203e-12 9.95556984706e-12 -105.821003119 0.00115041757142
0.87754896493 0.017024451079 2.40498750711 -0.655587965005 -2.31390755019 0 -2.69898529269 0 -2.69922369012 2.69898529269 -90 -0.655587965005 0.385077742505 0.760316043827 149.57107136 -120.42892864 7.6598056032e-05 -4.3963425292e-13 -1.55152975411e-12 1.61261383594e-12 -105.818960557 0.000221552142014
0.87756219561 0.017011563821 2.40298663922 -0.654973863997 -2.31200191446 0 -2.69673249343 0 -2.69700803704 2.69673249343 -90 -0.654973863997 0.384730578971 0.759610702668 149.570190375 -120.429809625 8.99675358856e-06 -4.32288225153e-14 -1.52575830408e-13 1.58581588543e-13 -105.817258563 2.59735032682e-05
0.87757322117 0.017000824439 2.40131946108 -0.654462262131 -2.3104140609 0 -2.69485540092 0 -2.69516186779 2.69485540092 -90 -0.654462262131 0.384441340023 0.759023079373 149.56945649 -120.43054351 6.11392065612e-07 -2.4532078199e-15 -8.65930151812e-15 9.00009709824e-15 -105.815840326 1.76223340741e-06
0.87758240913 0.016991874954 2.39993028899 -0.654036029758 -2.30909096802 0 -2.69329131943 0 -2.69362353812 2.69329131943 -90 -0.654036029758 0.384200351405 0.758533503988 149.56884511 -120.43115489 2.4931198822e-08 -8.34231265694e-17 -2.94486556008e-16 3.06074776187e-16 -105.814658528 7.17621534299e-08
0.87759006577 0.01698441705 2.39877274557 -0.653680907429 -2.30798847355 0 -2.69198803162 0 -2.69234169709 2.69198803162 -90 -0.653680907429 0.383999558075 0.758125601515 149.568335761 -120.431664239 6.3921541183e-10 -1.78688975014e-18 -6.30814782996e-18 6.55634903554e-18 -105.813673742 1.83783993591e-09
0.87759644631 0.016978202129 2.3978081967 -0.653385021926 -2.30706978689 0 -2.69090203854 0 -2.69127356571 2.69090203854 -90 -0.653385021926 0.383832251649 0.757785736561 149.567911395 -120.432088605 2.38101666276e-16 -5.54025235546e-25 -1.9558212429e-24 2.03277680055e-24 -105.812853116 6.83538733869e-16
0.87760176342 0.016973023029 2.39700445244 -0.653138484636 -2.30630425297 0 -2.68999709705 0 -2.69038350488 2.68999709705 -90 -0.653138484636 0.383692844074 0.7575025524 149.567557822 -120.432442178 4.55897043527e-20 -8.8324957015e-29 -3.11815179582e-28 3.24083361424e-28 -105.812169285 1.30762976109e-19
0.87760619434 0.016968707112 2.39633470129 -0.652933061269 -2.30566633801 0 -2.68924301963 0 -2.68964182117 2.68924301963 -90 -0.652933061269 0.383576681623 0.75726659197 149.567263222 -120.432736778 3.09185393959e-23 -4.9887301672e-32 -1.76122397658e-31 1.83051491314e-31 -105.811599438 8.86151780669e-23
0.87760988678 0.016965110515 2.3957765985 -0.652761891669 -2.30513476139 0 -2.68861464804 0 -2.68902377474 2.68861464804 -90 -0.652761891669 0.383479886648 0.757069976134 149.567017753 -120.432982247 9.38698023132e-27 -1.26149004648e-35 -4.45365453992e-35 4.62886596649e-35 -105.811124576 2.68864192683e-26
0.87761296381 0.016962113351 2.3955021083 -0.652677708359 -2.30487331671 0 -2.68830559779 0 -2.68850875234 2.68830559779 -90 -0.652677708359 0.383432281074 0.756973277745 149.566897032 -120.433102968 2.12310289863e-30 -2.37653179325e-39 -8.39036319833e-39 8.72044224505e-39 -105.810891026 6.07744590764e-30
0.87767134537 0.017469828679 2.46354171086 -0.670094716608 -2.37065593356 0 -2.76458884639 0 -2.76796887317 2.76458884639 -90 -0.670094716608 0.393932912825 0.777309533899 149.54982588 -120.45017412 0.0269831625588 -4.02717363914e-10 -1.42467132207e-09 1.48049657618e-09 -105.783791242 0.0818562732786
0.8777102691 0.017430751268 2.46106166001 -0.669337560885 -2.36829272789 0 -2.76179682472 0 -2.76125903316 2.76179682472 -90 -0.669337560885 0.393504096834 0.776439493535 149.548787609 -120.451212391 0.0204449061363 -2.90609637472e-10 -1.02814638664e-09 1.06842837599e-09 -105.781790927 0.0619443399121
0.87774270554 0.017398186759 2.4560135143 -0.667796636633 -2.36348233999 0 -2.75611366901 0 -2.7556693504 2.75611366901 -90 -0.667796636633 0.392631329012 0.774668800457 149.546674713 -120.453325287 0.00931222016139 -1.1017537379e-10 -3.89895469091e-10 4.05163083412e-10 -105.777718992 0.0280956816238
0.87776973591 0.017371049668 2.45180801023 -0.66651343128 -2.35947475398 0 -2.75137916444 0 -2.75101256616 2.75137916444 -90 -0.66651343128 0.391904410461 0.773194194617 149.544915467 -120.455084533 0.00383882339376 -3.78962784246e-11 -1.34139699545e-10 1.39390067618e-10 -105.774326201 0.0115412861314
0.87779226121 0.017348435426 2.44830431597 -0.665444717208 -2.35613584327 0 -2.74743475771 0 -2.7471328049 2.74743475771 -90 -0.665444717208 0.391298914442 0.771966031215 149.543450481 -120.456549519 0.00134777813724 -1.1131854186e-11 -3.94100456702e-11 4.09520478602e-11 -105.771499213 0.00404007404742
0.8778110323 0.017329590224 2.44538519159 -0.664554555457 -2.35335393566 0 -2.74414845731 0 -2.74390028977 2.74414845731 -90 -0.664554555457 0.390794521657 0.770943030524 149.542230394 -120.457769606 0.000369172564415 -2.55746032865e-12 -9.05547275273e-12 9.4096869405e-12 -105.769143625 0.00110384787437