TITLE = "Electromagnetic Field"
VARIABLES = X Y E ER EI EvR EvI EvR' EvI' Ev EvPhase EpR EpI Ep EpPhase EpToEvPhaseShift elConductivity Jr Ji J Jphase QJ
ZONE N=290, E=254, F=FEPOINT, ET=QUADRILATERAL
0.89316595016 0.039836547875 5.11735147098 -1.11710921721 -4.99393162492 0 -5.72110136686 0 -5.81988464695 5.72110136686 -90 -1.11710921721 0.727169741935 1.33293242018 146.938335153 -123.061664847 115.252051808 -0.000113415686232 -0.000507014151801 0.000519544481262 -102.609104645 1509.06922587
0.89325516416 0.03857394163 5.03616544784 -1.10734829109 -4.91290861103 0 -5.63053148999 0 -5.63518912748 5.63053148999 -90 -1.10734829109 0.717622878957 1.31954931395 147.055764187 -122.944235813 117.84392288 -0.000113057811524 -0.000501574605814 0.000514159407096 -102.70353277 1493.74174384
0.89334437816 0.037311335385 4.87109859292 -1.08639530284 -4.74839864633 0 -5.44635000206 0 -5.45044083761 5.44635000206 -90 -1.08639530284 0.697951355734 1.29127715581 147.282626749 -122.717373251 122.554231071 -0.000111536653297 -0.000487503703656 0.000500100877184 -102.888513725 1453.54600893
0.89343359216 0.03604872914 4.70603678969 -1.06316309929 -4.58436720976 0 -5.26210628052 0 -5.26564677561 5.26210628052 -90 -1.06316309929 0.677739070761 1.26081337075 147.484725248 -122.515274752 125.706633179 -0.000108139648404 -0.000466326620796 0.000478701528556 -103.058100947 1392.01168426
0.89352280616 0.034786122893 4.54097898886 -1.03761256092 -4.42083911866 0 -5.07780770969 0 -5.08081394433 5.07780770969 -90 -1.03761256092 0.65696859103 1.22810854693 147.661011715 -122.338988285 126.350770058 -0.000102348714594 -0.000436119254642 0.000447968272133 -103.210066939 1303.3074687
0.89361202016 0.033523516645 4.37592447342 -1.00975024405 -4.2578278218 0 -4.89346174505 0 -4.89594935173 4.89346174505 -90 -1.00975024405 0.635633923252 1.19315885261 147.810771369 -122.189228631 123.461415749 -9.37894820197e-05 -0.000395556737907 0.000406524028958 -103.342466041 1183.37800852
0.89370123416 0.032260910396 4.21347968139 -0.980137661356 -4.0978931192 0 -4.7119880101 0 -4.71106001044 4.7119880101 -90 -0.980137661356 0.614094890904 1.15662593365 147.932109331 -122.067890669 116.396387523 -8.14758433949e-05 -0.000340743845528 0.000350349498522 -103.452300405 1035.20921079
0.89378757354 0.031038987413 4.06408168356 -0.951104644204 -3.95122180347 0 -4.54505755234 0 -4.53211115503 4.54505755234 -90 -0.951104644204 0.593835748872 1.1212677972 148.021407325 -121.978592675 105.958026862 -6.36104959711e-05 -0.000264375423114 0.000271920365529 -103.534901805 877.153464339
0.89385952303 0.030020718261 3.92832722162 -0.923340701791 -3.81827110206 0 -4.39334817685 0 -4.38297901536 4.39334817685 -90 -0.923340701791 0.575077074792 1.08778302204 148.084772947 -121.915227053 93.2283734799 -4.37588929558e-05 -0.000181009615896 0.000186223862538 -103.594738862 721.04956123
0.89391948093 0.029172160635 3.81523941808 -0.899326083935 -3.70773021881 0 -4.2669539317 0 -4.25869945937 4.2669539317 -90 -0.899326083935 0.559223712896 1.05901777627 148.12579945 -121.87420055 80.3031073887 -2.97055154309e-05 -0.000122494927141 0.000126045332599 -103.634238348 585.776458147
0.89396944585 0.02846502928 3.72103153848 -0.878783128381 -3.61577315099 0 -4.16165105579 0 -4.15513288573 4.16165105579 -90 -0.878783128381 0.545877904797 1.03452525761 148.152603987 -121.847396013 67.6810924069 -1.98849703979e-05 -8.1829143728e-05 8.42105754683e-05 -103.660512677 469.584358078
0.89401108328 0.027875753152 3.64254951023 -0.86134761346 -3.53924384912 0 -4.07391937586 0 -4.06882817052 4.07391937586 -90 -0.86134761346 0.534675526734 1.01380355364 148.170410301 -121.829589699 55.4121417532 -1.30270732286e-05 -5.35335351649e-05 5.50957717607e-05 -103.678259821 368.412601871
0.89404578114 0.027384689712 3.57716636307 -0.846632857118 -3.47553332578 0 -4.00082581193 0 -3.996908657 4.00082581193 -90 -0.846632857118 0.525292486152 0.996353048827 148.182547779 -121.817452221 43.2720469275 -8.20133410027e-06 -3.36704258751e-05 3.46548621075e-05 -103.690535076 277.509448517
0.89407469602 0.026975470179 3.5226942264 -0.83426534119 -3.42248095735 0 -3.93992682699 0 -3.93697680113 3.93992682699 -90 -0.83426534119 0.517445869641 0.98170713106 148.191122846 -121.808877154 30.9784389465 -4.77206121597e-06 -1.95783923632e-05 2.01515760469e-05 -103.699304833 192.752045122
0.89409879176 0.026634453902 3.47731095737 -0.82390226411 -3.37829491389 0 -3.88918688832 0 -3.88703451767 3.88918688832 -90 -0.82390226411 0.510891974425 0.96944600283 148.197457177 -121.802542823 18.4599954383 -2.34003062499e-06 -9.59580011644e-06 9.87699971498e-06 -103.705822966 112.053846942
0.89411887154 0.026350273671 3.43949898955 -0.815238336933 -3.34148765307 0 -3.84691040405 0 -3.8454167012 3.84691040405 -90 -0.815238336933 0.505422750987 0.959200554894 148.202367546 -121.797632454 7.45060716081 -7.8904104311e-07 -3.23446082307e-06 3.32931263041e-06 -103.71087779 44.334500563
0.89413560469 0.026113456812 3.42083572529 -0.810956112025 -3.32332171837 0 -3.82604314705 0 -3.8107357726 3.82604314705 -90 -0.810956112025 0.502721428682 0.954137647557 148.204729179 -121.795270821 2.49096428253 -2.21675065954e-07 -9.08430863497e-07 9.35086342869e-07 -103.713304488 14.5747778125
0.89387194466 0.039880975952 5.11140795441 -1.11457261199 -4.98840831947 0 -5.7141473861 0 -5.80647333371 5.7141473861 -90 -1.11457261199 0.725739066625 1.33002606528 146.930356997 -123.069643003 115.136327246 -0.000113349145148 -0.000507309189656 0.000519817909693 -102.594855606 1504.05964426
0.89393844519 0.038617100335 5.03041466167 -1.10483902098 -4.90757886233 0 -5.62380034268 0 -5.62284215457 5.62380034268 -90 -1.10483902098 0.716221480353 1.31668143251 147.047534725 -122.952465275 117.688532067 -0.000112995979321 -0.000501894703053 0.000514458102087 -102.688975083 1488.3895334
0.89400494572 0.037353224722 4.86578826219 -1.08394915682 -4.74351046189 0 -5.44012628105 0 -5.43911801518 5.44012628105 -90 -1.08394915682 0.696615819153 1.28849726345 147.273774465 -122.726225535 122.298910355 -0.000111473626759 -0.000487826284847 0.000500401307449 -102.87324789 1447.38684672
0.89407144624 0.036089349112 4.70114917122 -1.06078316191 -4.57990148401 0 -5.25637049025 0 -5.25530784243 5.25637049025 -90 -1.06078316191 0.676469006243 1.25812382531 147.475211485 -122.524788515 125.317097107 -0.000108054596802 -0.000466551616212 0.000478901527712 -103.042116106 1384.85457935
0.89413794677 0.034825473506 4.53649635707 -1.03530411358 -4.41677613007 0 -5.0725402818 0 -5.07141857275 5.0725402818 -90 -1.03530411358 0.655764151733 1.22551388691 147.650826805 -122.349173195 125.802203506 -0.000102227654297 -0.000436174437561 0.000447994371055 -103.193384073 1295.13075831
0.8942044473 0.033561597905 4.37182912698 -1.00752111232 -4.25414714846 0 -4.88864303269 0 -4.88745715315 4.88864303269 -90 -1.00752111232 0.634495884227 1.19066613738 147.79994388 -122.20005612 122.755178613 -9.36341655654e-05 -0.00039543377452 0.000406368584281 -103.3251481 1174.44985327
0.89427094783 0.032297722309 4.20974986638 -0.977996824422 -4.09456974775 0 -4.7075934673 0 -4.70343054011 4.7075934673 -90 -0.977996824422 0.613023719547 1.15424307912 147.920717454 -122.079282546 115.572961947 -8.13081504876e-05 -0.0003405104764 0.000350083562101 -103.434463253 1026.10303839
0.89433530528 0.031074576921 4.06068057171 -0.94905642869 -3.94821616313 0 -4.5410446636 0 -4.52527893485 4.5410446636 -90 -0.94905642869 0.592828500466 1.1189970123 148.009584855 -121.990415145 105.08629439 -6.34649589213e-05 -0.000264138484693 0.000271655982518 -103.5167113 868.50716821
0.8943889365 0.030055289094 3.9252170229 -0.921386408881 -3.81554343676 0 -4.38967326526 0 -4.37678216628 4.38967326526 -90 -0.921386408881 0.574129828506 1.08562343067 148.072654976 -121.927345024 92.3656879112 -4.36557718821e-05 -0.000180836739596 0.000186031614231 -103.576354645 713.265921826
0.89443362918 0.029205882568 3.81236199078 -0.897456024982 -3.70522254655 0 -4.26354976774 0 -4.25301192735 4.26354976774 -90 -0.897456024982 0.558327221194 1.05695635499 148.11351351 -121.88648649 79.472934557 -2.96290787183e-05 -0.000122351508193 0.000125887952243 -103.615795231 578.863390566
0.89447087307 0.028498043794 3.71834127659 -0.87698702952 -3.6134407085 0 -4.15846481421 0 -4.14985577691 4.15846481421 -90 -0.87698702952 0.545024105718 1.03254908314 148.140235907 -121.859764093 66.8830683136 -1.98203556235e-05 -8.16775253343e-05 8.40479956202e-05 -103.642094718 463.392850224
0.89450190966 0.027908178147 3.64001041277 -0.859615518342 -3.53705179991 0 -4.07090929755 0 -4.06388334798 4.07090929755 -90 -0.859615518342 0.533857497645 1.01190055304 148.158016352 -121.841983648 54.6312550562 -1.29638241481e-05 -5.33477775608e-05 5.49003319845e-05 -103.659915946 362.73141048
0.89452777347 0.02741662344 3.57474984528 -0.84495562512 -3.47345434466 0 -3.99795869937 0 -3.99223397883 3.99795869937 -90 -0.84495562512 0.524504354712 0.994512382443 148.170164126 -121.829835874 42.4878410396 -8.13359220322e-06 -3.34383639008e-05 3.44133640937e-05 -103.672291197 272.130372995
0.89454932666 0.027006994516 3.52037746873 -0.832634849994 -3.42049345362 0 -3.93717614881 0 -3.93252254616 3.93717614881 -90 -0.832634849994 0.516682695185 0.979919306964 148.178772119 -121.821227881 30.173430397 -4.69812696018e-06 -1.93012898935e-05 1.9864849071e-05 -103.681172237 187.517242948
0.89456728764 0.026665637079 3.47507565087 -0.822311430219 -3.37638171671 0 -3.88653133574 0 -3.88276068671 3.88653133574 -90 -0.822311430219 0.510149619035 0.967702829532 148.185152718 -121.814847282 17.6562665131 -2.26461099438e-06 -9.29887732501e-06 9.57066306576e-06 -103.687803724 107.060964028
0.89458225513 0.026381172547 3.43733037686 -0.813681025687 -3.33963503467 0 -3.84433278573 0 -3.84129095744 3.84433278573 -90 -0.813681025687 0.504697751064 0.957494999287 148.190115743 -121.809884257 6.90080106066 -7.39160603046e-07 -3.03385522514e-06 3.12260097721e-06 -103.692967833 41.0193799536
0.89459472804 0.02614411877 3.41870188051 -0.809415957807 -3.32150075264 0 -3.82350605908 0 -3.80673186103 3.82350605908 -90 -0.809415957807 0.502005306446 0.952451342938 148.192506818 -121.807493182 2.22325930961 -1.99867544442e-07 -8.20055860784e-07 8.44060849066e-07 -103.695452029 12.9941038352
0.89458199164 0.039911982138 5.09876739463 -1.10943472812 -4.97660347377 0 -5.69940533424 0 -5.79107251059 5.69940533424 -90 -1.10943472812 0.72280186047 1.32411780847 146.915554645 -123.084445355 114.919243177 -0.000112779500732 -0.000505895074367 0.000518313666087 -102.567434359 1493.80854482
0.89462660373 0.038647021467 5.01821566348 -1.09975983305 -4.89621754246 0 -5.6095665161 0 -5.60850569012 5.6095665161 -90 -1.09975983305 0.713348973642 1.31085690187 147.032118463 -122.967881537 117.388134295 -0.000112376937304 -0.00050028899179 0.000512755680695 -102.660871644 1477.43279699
0.89467121582 0.037382060796 4.85449949242 -1.07899520312 -4.73306221285 0 -5.42693997838 0 -5.42580774593 5.42693997838 -90 -1.07899520312 0.693877765538 1.28284944303 147.25702019 -122.74297981 121.79359492 -0.000110734739887 -0.00048574472027 0.000498207500789 -102.843700283 1434.77194756
0.89471582791 0.036117100124 4.69073473164 -1.0559614647 -4.57032754098 0 -5.24419227592 0 -5.24298551589 5.24419227592 -90 -1.0559614647 0.673864734943 1.25265817953 147.457054173 -122.542945827 124.539333427 -0.000107163560767 -0.00046384430717 0.000476063043898 -103.011108265 1370.2256971
0.89476044 0.034852139453 4.52692042628 -1.03062617923 -4.40803651261 0 -5.06133061595 0 -5.06004585308 5.06133061595 -90 -1.03062617923 0.653294103344 1.22024033715 147.631261227 -122.368738773 124.705182138 -0.000101177634979 -0.000432793646001 0.000444463232382 -103.160965442 1278.48583661
0.89480505208 0.033587178781 4.36305598174 -1.00300355472 -4.24620051715 0 -4.87836227277 0 -4.87699562494 4.87836227277 -90 -1.00300355472 0.63216175562 1.18559967475 147.779042236 -122.220957764 121.345664222 -9.24629225912e-05 -0.000391510355254 0.000402280923204 -103.291453259 1156.37020708
0.89484966417 0.032322218109 4.20173329601 -0.973658079911 -4.08736324487 0 -4.69818951668 0 -4.69384171331 4.69818951668 -90 -0.973658079911 0.61082627181 1.14939983045 147.898652754 -122.101347246 113.934381565 -8.0118031654e-05 -0.00033642424484 0.000345832715987 -103.399734044 1007.7543571
0.89489283836 0.031098028751 4.05333400812 -0.944903377867 -3.94165785654 0 -4.5324180476 0 -4.51649886062 4.5324180476 -90 -0.944903377867 0.590760191063 1.1143790003 147.986644396 -122.013355604 103.35434511 -6.24269403387e-05 -0.000260522504822 0.000267897610126 -103.481289962 851.134454838
0.89492881684 0.030077870952 3.91845715112 -0.917420341754 -3.80954622258 0 -4.38172796279 0 -4.36864842508 4.38172796279 -90 -0.917420341754 0.572181740213 1.08122720902 148.049117981 -121.950882019 90.6507277142 -4.28752526579e-05 -0.000178087857661 0.000183176364645 -103.540562197 697.633938838
0.89495879892 0.029227739454 3.80607221725 -0.893657894451 -3.69967009955 0 -4.25615098993 0 -4.24539758635 4.25615098993 -90 -0.893657894451 0.556480890388 1.05275616491 148.089638778 -121.910361222 77.8189581386 -2.90488888235e-05 -0.000120282714888 0.000123740744895 -103.579899109 564.965762665
0.89498378398 0.028519296539 3.71243015149 -0.873336539539 -3.60824321862 0 -4.15150664667 0 -4.14266091532 4.15150664667 -90 -0.873336539539 0.543263428056 1.02851929684 148.11619778 -121.88380222 65.2876625455 -1.93824331229e-05 -8.00898325863e-05 8.24018256132e-05 -103.606261029 450.921520783
0.89500460486 0.027928927443 3.63440569427 -0.85609295699 -3.53213931115 0 -4.06430795627 0 -4.05702877201 4.06430795627 -90 -0.85609295699 0.532168645119 1.00801720111 148.133929254 -121.866070746 53.0619458235 -1.26214920337e-05 -5.20792610957e-05 5.35868623544e-05 -103.624241051 351.250357355
0.8950219556 0.027436953196 3.56939409513 -0.841542864646 -3.46877189937 0 -3.99164749232 0 -3.9856565246 3.99164749232 -90 -0.841542864646 0.522875592946 0.9907539196 148.146101705 -121.853898295 40.9035538339 -7.85443812648e-06 -3.23772794672e-05 3.33163704288e-05 -103.636825831 261.225114518
0.89503641455 0.027026974657 3.51522474896 -0.829315754461 -3.41599753946 0 -3.93110168347 0 -3.9261715463 3.93110168347 -90 -0.829315754461 0.515104144011 0.976266841277 148.154780488 -121.845219512 28.5420427849 -4.46287921965e-06 -1.83836030858e-05 1.89175629692e-05 -103.645938121 176.892785113
0.89504846367 0.026685325875 3.47008902517 -0.81907189852 -3.37203764935 0 -3.88065064371 0 -3.87659528582 3.88065064371 -90 -0.81907189852 0.508612994368 0.964140029088 148.161258937 -121.838741063 16.0434903416 -2.07145574335e-06 -8.52820970883e-06 8.77617781936e-06 -103.652804197 97.0404832554
0.89505850461 0.026400618556 3.43248000371 -0.810508805843 -3.33541501789 0 -3.8386111244 0 -3.83527805992 3.8386111244 -90 -0.810508805843 0.503196106503 0.954007802217 148.166332299 -121.833667701 5.8392559901 -6.29439155502e-07 -2.59026067554e-06 2.66564151321e-06 -103.658193711 34.6196219918
0.89506687205 0.026163362457 3.41391932226 -0.806277458464 -3.31734241941 0 -3.81786351315 0 -3.8008445478 3.81786351315 -90 -0.806277458464 0.500521093735 0.949001972638 148.16878516 -121.83121484 1.75041323879 -1.58208514692e-07 -6.50822131261e-07 6.69775649862e-07 -103.660796638 10.2023857267
0.89526860148 0.041196366005 5.23924803559 -1.11876925789 -5.11840554528 0 -5.85500426899 0 -5.95527878852 5.85500426899 -90 -1.11876925789 0.736598723704 1.3394858462 146.639055584 -123.360944416 109.160845875 -0.000111329360379 -0.000509335425065 0.000521360529488 -102.329665122 1498.21732593
0.8952909196 0.039930821033 5.13720537409 -1.10910653383 -5.01604216092 0 -5.74148709486 0 -5.77402581327 5.74148709486 -90 -1.10910653383 0.72544493394 1.32529093678 146.813036521 -123.186963479 112.831466157 -0.000111708158327 -0.000505173970481 0.000517378283529 -102.469591717 1488.17072881
0.89531323772 0.038665276061 5.0044972896 -1.09450116734 -4.88333815016 0 -5.5936434811 0 -5.5925967926 5.5936434811 -90 -1.09450116734 0.710305330938 1.30478874414 147.018577173 -122.981422827 117.103315311 -0.000111406154334 -0.000497043600021 0.000509376466737 -102.634426012 1465.83754686
0.89533555584 0.037399731089 4.84173717161 -1.07384847142 -4.7211453073 0 -5.41211420309 0 -5.41099843119 5.41211420309 -90 -1.07384847142 0.690968895789 1.27694718046 147.241881744 -122.758118256 121.289758075 -0.000109553371157 -0.000481654950589 0.000493957496154 -102.815643862 1421.38217343
0.89535787397 0.036134186117 4.67889385671 -1.0509354658 -4.55933544653 0 -5.23042588093 0 -5.22923745316 5.23042588093 -90 -1.0509354658 0.671090434407 1.24692895784 147.4402692 -122.5597308 123.749061663 -0.000105747198137 -0.000458801655507 0.000470831031945 -102.981424001 1354.72474853
0.89538019209 0.034868641145 4.51596648072 -1.02573447174 -4.39793027116 0 -5.04858562948 0 -5.04732060302 5.04858562948 -90 -1.02573447174 0.650655358329 1.21469604658 147.612843029 -122.387156971 123.585176184 -9.95372993745e-05 -0.000426831352842 0.000438284123253 -103.1297052 1260.94362726
0.89540251021 0.033603096173 4.35295456797 -0.998264987396 -4.23693977205 0 -4.86660063967 0 -4.86525464389 4.86660063967 -90 -0.998264987396 0.629660867625 1.18025747278 147.759083546 -122.240916454 119.908880132 -9.06642659811e-05 -0.000384879252606 0.00039541399541 -103.258756873 1137.45408917
0.89542482833 0.0323375512 4.19243737679 -0.969093192418 -4.07889392375 0 -4.68735834116 0 -4.68304635857 4.68735834116 -90 -0.969093192418 0.608464417412 1.14427780797 147.877351212 -122.122648788 112.269092002 -7.83074327659e-05 -0.000329688283587 0.000338860602604 -103.365853643 988.683726935
0.89544642701 0.031112802473 4.04474696828 -0.940519881518 -3.93387761549 0 -4.52240679591 0 -4.50658264885 4.52240679591 -90 -0.940519881518 0.588529180419 1.10947950996 147.964322425 -122.035677575 101.595630913 -6.08480745198e-05 -0.000254614825383 0.000261784694638 -103.446589516 833.139539311
0.8954644259 0.030092178534 3.91048872766 -0.913220357714 -3.80236069546 0 -4.37243299039 0 -4.35943706047 4.37243299039 -90 -0.913220357714 0.570072294936 1.07654729751 148.026081118 -121.973918882 88.9047542722 -4.16786975118e-05 -0.000173587084292 0.000178520579303 -103.505379501 681.438145794
0.89547942498 0.029241658585 3.79860163599 -0.889624043249 -3.69295831225 0 -4.24743300292 0 -4.23675427351 4.24743300292 -90 -0.889624043249 0.554474690678 1.04827155098 148.066173821 -121.933826179 76.1264436694 -2.81576871496e-05 -0.000116909611095 0.000120252712216 -103.544523293 550.529736963
0.89549192421 0.028532891961 3.70536224059 -0.869449640701 -3.60191128942 0 -4.14325569056 0 -4.13447754234 4.14325569056 -90 -0.869449640701 0.54134440114 1.02420530906 148.092500777 -121.907499223 63.6439111059 -1.87177451077e-05 -7.75534003644e-05 7.97802273189e-05 -103.570876268 437.916824204
0.89550234024 0.027942253108 3.62766490786 -0.85233403561 -3.52611371857 0 -4.05643664653 0 -4.04921934048 4.05643664653 -90 -0.85233403561 0.530322927957 1.00385047349 148.110131537 -121.889868463 51.431097078 -1.2117994134e-05 -5.01370403884e-05 5.15807026348e-05 -103.588958781 339.217252788
0.89551102026 0.027450054064 3.56292007601 -0.837894264383 -3.46299457253 0 -3.98408594652 0 -3.97815221796 3.98408594652 -90 -0.837894264383 0.521091373993 0.986713264437 148.122290152 -121.877709848 39.2432348858 -7.46498798364e-06 -3.08547535918e-05 3.17449517904e-05 -103.601709261 249.741576541
0.89551825361 0.027039888193 3.50896899502 -0.825761621474 -3.41042225942 0 -3.9237936999 0 -3.91891699764 3.9237936999 -90 -0.825761621474 0.513371440479 0.972333551101 148.131011497 -121.868988503 26.8244039441 -4.1574920323e-06 -1.71714891671e-05 1.76676203724e-05 -103.611019119 165.691930962
0.89552428141 0.026698083302 3.46401236013 -0.815598271933 -3.36662739095 0 -3.87355079508 0 -3.86954573303 3.87355079508 -90 -0.815598271933 0.506923404129 0.960297828407 148.137567315 -121.862432685 14.3860442667 -1.84442740344e-06 -7.61374522243e-06 7.83396670659e-06 -103.618094088 86.7488450301
0.89552930457 0.026413245892 3.42655064004 -0.807103439445 -3.33013997813 0 -3.83168252826 0 -3.82839715862 3.83168252826 -90 -0.807103439445 0.50154255013 0.950242563809 148.142735534 -121.857264466 4.82953344072 -5.15545179253e-07 -2.12716087933e-06 2.18874408289e-06 -103.623688834 28.5386082263
0.89553349054 0.026175881384 3.40806113958 -0.802905818379 -3.31213254029 0 -3.81101773374 0 -3.79410267563 3.81101773374 -90 -0.802905818379 0.498885193456 0.945274682816 148.14524294 -121.85475706 1.37932520906 -1.232693127e-07 -5.08433745965e-07 5.2316366565e-07 -103.626400911 8.01202056024
0.896 0.041203157352 5.22976322211 -1.11567373721 -5.10937318887 0 -5.84406440006 0 -5.93533494011 5.84406440006 -90 -1.11567373721 0.734691211191 1.33585144178 146.634366189 -123.365633811 109.138917389 -0.000117179577407 -0.000536664866558 0.000549308878754 -102.317644665 1492.50321856
0.896 0.039937543136 5.14943611734 -1.10704400789 -5.02902229795 0 -5.75453962316 0 -5.75532223922 5.75453962316 -90 -1.10704400789 0.725517325208 1.32360516326 146.761773397 -123.238226603 111.815566616 -0.000118321309338 -0.000537456888281 0.000550327864042 -102.416119472 1481.73892959
0.896 0.03867192892 4.98754089413 -1.08858286336 -4.8672872006 0 -5.57406878293 0 -5.5750960794 5.57406878293 -90 -1.08858286336 0.706781582335 1.29790594857 147.006827627 -122.993172373 116.8232899 -0.00012000234627 -0.000536543226629 0.000549799969955 -102.608386189 1452.48374024
0.896 0.037406314704 4.82554320217 -1.06792390662 -4.70588484202 0 -5.39341073818 0 -5.39466302372 5.39341073818 -90 -1.06792390662 0.687525896155 1.27010184672 147.227866029 -122.772133971 120.743740833 -0.000120159537461 -0.000529519134363 0.000542982047408 -102.78721095 1405.59411975
0.896 0.036140700488 4.66344186181 -1.04501159067 -4.54484317431 0 -5.21257214109 0 -5.21402965961 5.21257214109 -90 -1.04501159067 0.667728966773 1.24012707262 147.423848983 -122.576151017 122.849063484 -0.000118187564361 -0.000514079188078 0.000527490509161 -102.950465732 1336.07969431
0.896 0.034875086272 4.5012357332 -1.01982425783 -4.38418193088 0 -5.03155966698 0 -5.03320259861 5.03155966698 -90 -1.01982425783 0.647377736098 1.20794959512 147.593942909 -122.406057091 122.268836185 -0.000113459430374 -0.000487871452647 0.000500891175627 -103.096158602 1239.47376001
0.896 0.033609472056 4.33892406659 -0.99238844999 -4.22390884582 0 -4.85038001424 0 -4.85218847636 4.85038001424 -90 -0.99238844999 0.626471168424 1.17358544357 147.737714686 -122.262285314 118.177807888 -0.000105526805478 -0.0004493014369 0.000461527816385 -103.222654591 1113.90522748
0.896 0.03234385784 4.17910510908 -0.963281452565 -4.06657037609 0 -4.67194119235 0 -4.67099395271 4.67194119235 -90 -0.963281452565 0.605370816256 1.13771089382 147.853638128 -122.146361872 110.21549636 -9.31524419388e-05 -0.000393432400872 0.000404309975837 -103.327356032 964.513574285
0.896 0.0311190482 4.03219320883 -0.934826202359 -3.92233024291 0 -4.50788143319 0 -4.49547583369 4.50788143319 -90 -0.934826202359 0.58555119028 1.10307332142 147.938549082 -122.061450918 99.3855867906 -7.39041783586e-05 -0.00031028605353 0.000318965995125 -103.406031321 810.025343859
0.896 0.0300983735 3.89871287122 -0.907680567868 -3.79157932689 0 -4.35879716371 0 -4.34909083883 4.35879716371 -90 -0.907680567868 0.567217836817 1.07033655184 147.998645894 -122.001354106 86.6761746996 -5.17530519264e-05 -0.000216303396291 0.000222408521041 -103.463198493 660.408223145
0.896 0.02924781125 3.78744630033 -0.884230025865 -3.68278207841 0 -4.234507711 0 -4.22702280852 4.234507711 -90 -0.884230025865 0.55172563259 1.04223991981 148.037562086 -121.962437914 73.9311825869 -3.56192969653e-05 -0.000148426105559 0.000152640254705 -103.501228719 531.560259104
0.896 0.028539009375 3.69470276473 -0.864188301176 -3.59221446725 0 -4.1308989426 0 -4.12524510554 4.1308989426 -90 -0.864188301176 0.53868447535 1.01833318677 148.06306346 -121.93693654 61.4777338632 -2.4013713484e-05 -9.98645319964e-05 0.000102711171598 -103.526832478 420.622882014
0.896 0.027948341146 3.61740259922 -0.847190435091 -3.51679795902 0 -4.04453586842 0 -4.04039353196 4.04453586842 -90 -0.847190435091 0.527737909401 0.998117734579 148.080122399 -121.919877601 49.2497586407 -1.56685909187e-05 -6.50705934265e-05 6.69304675197e-05 -103.544423111 323.040073068
0.896 0.027456117621 3.55297675664 -0.832853511157 -3.45398276808 0 -3.97255184045 0 -3.96965884942 3.97255184045 -90 -0.832853511157 0.518569072373 0.981100873327 148.091893932 -121.908106068 36.9947091735 -9.63117868025e-06 -3.99588866718e-05 4.11031926708e-05 -103.55686302 234.170051434
0.896 0.027045931351 3.49928264523 -0.820809825024 -3.40165378217 0 -3.91255532816 0 -3.91069620216 3.91255532816 -90 -0.820809825024 0.510901545987 0.966824298505 148.10036325 -121.89963675 24.4865864152 -5.24658308456e-06 -2.17521167169e-05 2.23759084792e-05 -103.565989769 150.477628045
0.896 0.026704109459 3.45453366786 -0.810722890667 -3.35805442379 0 -3.86255167887 0 -3.86154898151 3.86255167887 -90 -0.810722890667 0.504497255076 0.954876509769 148.106764723 -121.893235277 12.2373847577 -2.17880970379e-06 -9.02826781033e-06 9.28745619744e-06 -103.572969875 73.4428213315
0.896 0.026419257883 3.41724028522 -0.802293153379 -3.3217247281 0 -3.82087757307 0 -3.82058495617 3.82087757307 -90 -0.802293153379 0.49915284497 0.944895723271 148.111843725 -121.888156275 3.65648753442 -5.36016156507e-07 -2.21994822318e-06 2.2837434473e-06 -103.578525705 21.495202988
0.896 0.026181881569 3.39887416513 -0.798137354557 -3.30383424234 0 -3.80035365268 0 -3.78644276707 3.80035365268 -90 -0.798137354557 0.49651941034 0.939975968255 148.114310773 -121.885689227 1.03145782204 -1.27517766126e-07 -5.27950879426e-07 5.43132535248e-07 -103.581221969 5.96021009078
0.896796843 0.041203157352 5.21039101186 -1.10940177472 -5.09091356296 0 -5.82173365612 0 -5.9126628855 5.82173365612 -90 -1.10940177472 0.730820093156 1.3284842185 146.62503154 -123.37496846 109.083635774 -0.000129579294913 -0.00059465829167 0.000608612598464 -102.293562483 1480.71826757
0.896796843 0.039937543136 5.12989846466 -1.10070333473 -5.01041235547 0 -5.73203443129 0 -5.73333185245 5.73203443129 -90 -1.10070333473 0.721622075824 1.31616671155 146.752290856 -123.247709144 111.698423176 -0.000131617653854 -0.000599046316586 0.000613335810998 -102.391615791 1469.01170719
0.896796843 0.03867192892 4.96885354409 -1.08222614921 -4.84955948056 0 -5.55253160354 0 -5.55378872806 5.55253160354 -90 -1.08222614921 0.702972122972 1.29049991334 146.994983432 -123.005016568 116.499979147 -0.000134965878913 -0.000604748700072 0.000619627136333 -102.581441377 1437.68078242
0.896796843 0.037406314704 4.80768839238 -1.0615560276 -4.68902062556 0 -5.37282328536 0 -5.37404003416 5.37282328536 -90 -1.0615560276 0.683802659798 1.26273214493 147.213490402 -122.786509598 120.126759735 -0.000136505949746 -0.00060295545128 0.00061821518147 -102.757648888 1388.15033316
0.896796843 0.036140700488 4.64640181325 -1.03864259922 -4.52882227315 0 -5.19291602029 0 -5.1940923167 5.19291602029 -90 -1.03864259922 0.664093747147 1.23280281006 147.406817101 -122.593182899 121.852004063 -0.000135478136735 -0.000590763872655 0.000606099795211 -102.918159755 1315.65266437
0.896796843 0.034875086272 4.48499269836 -1.0134709316 -4.36898231022 0 -5.01281637586 0 -5.01395214556 5.01281637586 -90 -1.0134709316 0.643834065642 1.20068659606 147.574201445 -122.425798555 120.839019035 -0.000131103248771 -0.00056524965435 0.000580254884202 -103.061060678 1216.24794339
0.896796843 0.033609472056 4.32346037626 -0.986075149807 -4.20950642342 0 -4.83253094349 0 -4.83362611459 4.83253094349 -90 -0.986075149807 0.623024520075 1.16640709823 147.715304281 -122.284695719 116.333613257 -0.000122820303817 -0.000524419742336 0.000538610452473 -103.184821008 1088.81371385
0.896796843 0.03234385784 4.16441250126 -0.957042127056 -4.05294804262 0 -4.65497759796 0 -4.65312084161 4.65497759796 -90 -0.957042127056 0.602029555336 1.13065038071 147.828726272 -122.171273728 108.0676138 -0.0001091161012 -0.00046223514669 0.000474939822387 -103.286985464 939.16120156
0.896796843 0.0311190482 4.01830029594 -0.928707265968 -3.90950532102 0 -4.49183389836 0 -4.47827081543 4.49183389836 -90 -0.928707265968 0.582328577338 1.09617712462 147.91148866 -122.08851134 97.1027427713 -8.7012549006e-05 -0.000366460163213 0.000376648780983 -103.363521911 786.040265741
0.896796843 0.0300983735 3.88558377175 -0.901711685482 -3.77950685245 0 -4.34362397619 0 -4.33244333625 4.34362397619 -90 -0.901711685482 0.564117123739 1.06363168593 147.96986569 -122.03013431 84.3875181783 -6.12300965148e-05 -0.000256734905777 0.000263935522335 -103.419016583 638.699171071
0.896796843 0.02924781125 3.77492550168 -0.878404107027 -3.67130286603 0 -4.22003190415 0 -4.21084042102 4.22003190415 -90 -0.878404107027 0.548729038124 1.03571111063 148.007560107 -121.992439893 71.6843322341 -4.22557911553e-05 -0.000176656528536 0.000181640001357 -103.455895381 512.050947429
0.896796843 0.028539009375 3.68266878031 -0.858493301066 -3.58120581188 0 -4.11698200437 0 -4.10945066416 4.11698200437 -90 -0.858493301066 0.535776192489 1.01196196137 148.032200909 -121.967799091 59.2649523884 -2.84839763658e-05 -0.000118846463464 0.000122212203226 -103.480720604 402.893675524
0.896796843 0.027948341146 3.60576001962 -0.841612358006 -3.50616466502 0 -4.0310688281 0 -4.02492261645 4.0310688281 -90 -0.841612358006 0.524904163074 0.991885004297 148.048661791 -121.951338209 47.0252191869 -1.85010767193e-05 -7.70890624176e-05 7.92780862743e-05 -103.497796899 306.518596964
0.896796843 0.027456117621 3.54165024393 -0.827378216474 -3.44365047012 0 -3.95944851428 0 -3.95445770034 3.95944851428 -90 -0.827378216474 0.515798044159 0.974988435521 148.060027296 -121.939972704 34.7099553579 -1.12307684541e-05 -4.67503124776e-05 4.80803749861e-05 -103.509909279 218.36709947