TITLE = "Electromagnetic Field"
VARIABLES = X Y E ER EI EvR EvI EvR' EvI' Ev EvPhase EpR EpI Ep EpPhase EpToEvPhaseShift elConductivity Jr Ji J Jphase QJ
ZONE N=287, E=251, F=FEPOINT, ET=QUADRILATERAL
0.87587341104 0.018056208107 2.57377005201 -0.709680557897 -2.47399389376 0 -2.88920384629 0 -2.88635127362 2.88920384629 -90 -0.709680557897 0.415209952528 0.822220042893 149.669549376 -120.330450624 65.8507540728 -6.82426674016e-06 -2.3789850316e-05 2.47492948304e-05 -106.005868143 218.107320939
0.87612169577 0.017821581965 2.55863797156 -0.704978030186 -2.45960034815 0 -2.87216352057 0 -2.84542342954 2.87216352057 -90 -0.704978030186 0.41256317242 0.816824586004 149.663170901 -120.336829099 59.9872857383 -5.75127327686e-06 -2.00620473404e-05 2.0870144002e-05 -105.993431098 196.640864586
0.87632859971 0.017626060179 2.52767779513 -0.695355578371 -2.43015130998 0 -2.83729940414 0 -2.81138897083 2.83729940414 -90 -0.695355578371 0.40714809416 0.805784684771 149.649921865 -120.350078135 47.1443216201 -3.68469185293e-06 -1.28751714631e-05 1.33920499185e-05 -105.967707385 150.83155291
0.87650101966 0.017463125357 2.5019268933 -0.687352073986 -2.40565689968 0 -2.80830203523 0 -2.78307690332 2.80830203523 -90 -0.687352073986 0.402645135546 0.796602776756 149.638555739 -120.361444261 34.4422220048 -2.20799916082e-06 -7.72639464111e-06 8.03569761304e-06 -105.945824344 107.983106535
0.87664470295 0.017327346339 2.48050203362 -0.680696870991 -2.38527608022 0 -2.78417650865 0 -2.7595181811 2.78417650865 -90 -0.680696870991 0.398900428428 0.788967544048 149.62892271 -120.37107729 21.6075348963 -1.1466884005e-06 -4.01735992646e-06 4.17780748189e-06 -105.927360913 66.6288298892
0.87676443903 0.017214197157 2.4626717681 -0.675163540831 -2.36831297364 0 -2.7640989613 0 -2.73990996264 2.7640989613 -90 -0.675163540831 0.395785987664 0.78261890941 149.62083148 -120.37916852 9.6358107445 -4.30024979164e-07 -1.5080034378e-06 1.56811857643e-06 -105.911877723 29.3253944314
0.8768642191 0.017119906172 2.44782973884 -0.670562998941 -2.35419107836 0 -2.74738646782 0 -2.72358646801 2.74738646782 -90 -0.670562998941 0.393195389459 0.777339920194 149.614077788 -120.385922212 2.36395891427 -8.74380823961e-08 -3.06894954838e-07 3.19108025576e-07 -105.898949374 7.10686570056
0.87694736915 0.017041330351 2.43547286366 -0.666737347694 -2.34243235476 0 -2.7334724478 0 -2.70999513628 2.7334724478 -90 -0.666737347694 0.391040093041 0.772949575542 149.608457628 -120.391542372 0.505827704308 -1.51572542034e-08 -5.32430192732e-08 5.53584814682e-08 -105.888177123 1.50318575092
0.87701666086 0.016975850501 2.42518344441 -0.663555089315 -2.33263999654 0 -2.72188650065 0 -2.69867706387 2.72188650065 -90 -0.663555089315 0.389246504108 0.769297210646 149.60378268 -120.39621732 0.196647920982 -4.83119119304e-09 -1.69814687003e-08 1.76553303195e-08 -105.87920463 0.579083928784
0.87707440396 0.016921283958 2.4166144713 -0.660907233929 -2.32448426776 0 -2.71223784579 0 -2.6892509152 2.71223784579 -90 -0.660907233929 0.387753578031 0.766257926341 149.599893261 -120.400106739 0.0916343232477 -1.8580843543e-09 -6.53450043873e-09 6.79353910502e-09 -105.87173091 0.267856895985
0.8771225232 0.016875811839 2.40947751003 -0.658703482908 -2.31769100166 0 -2.70420167542 0 -2.681399664 2.70420167542 -90 -0.658703482908 0.386510673762 0.763728210623 149.596656662 -120.403343338 0.0447057042035 -7.50812884715e-10 -2.6415857115e-09 2.74621468073e-09 -105.865505171 0.129886013599
0.87716262257 0.016837918407 2.4035327176 -0.656868963297 -2.31203215378 0 -2.69750790676 0 -2.67485964303 2.69750790676 -90 -0.656868963297 0.38547575298 0.761622210375 149.593962755 -120.406037245 0.0215729945919 -3.00843599822e-10 -1.05883361548e-09 1.10074315729e-09 -105.860318678 0.0623615681413
0.87719603871 0.016806340547 2.39858058206 -0.65534154227 -2.30731798091 0 -2.69193187722 0 -2.66941149197 2.69193187722 -90 -0.65534154227 0.384613896311 0.75986866394 149.591720133 -120.408279867 0.00988096999508 -1.14680736338e-10 -4.03743025328e-10 4.19714309897e-10 -105.855997707 0.0284436925135
0.8772238855 0.016780025664 2.39445509334 -0.654069624622 -2.30339056949 0 -2.68728665219 0 -2.66487266184 2.68728665219 -90 -0.654069624622 0.383896082708 0.758408383586 149.589852902 -120.410147098 0.00410880210406 -3.97854433732e-11 -1.40102071169e-10 1.45641586991e-10 -105.852397647 0.011786675379
0.87724709115 0.016758096594 2.3924255167 -0.653444030527 -2.30145839674 0 -2.6850013892 0 -2.66109120304 2.6850013892 -90 -0.653444030527 0.383542992455 0.757690126696 149.588934571 -120.411065429 0.00214691927976 -1.79933107863e-11 -6.3373225953e-11 6.5878107143e-11 -105.85062646 0.00614416078294
0.87616066305 0.018376718267 2.59420432947 -0.714039801359 -2.49400110942 0 -2.91203938216 0 -2.93323346881 2.91203938216 -90 -0.714039801359 0.418038272739 0.827410957255 149.653044553 -120.346955447 65.5643953483 -6.83746445538e-06 -2.38817324614e-05 2.48412605214e-05 -105.976800831 220.619293425
0.87640527737 0.018138453145 2.57897496017 -0.709324948798 -2.47950961231 0 -2.89489053442 0 -2.89178256952 2.89489053442 -90 -0.709324948798 0.415380922111 0.821999548856 149.646799463 -120.353200537 59.7094865322 -5.76106985637e-06 -2.01346334784e-05 2.09426245851e-05 -105.964625205 198.852289713
0.87660912264 0.017939898876 2.5478156795 -0.699676988352 -2.44986020197 0 -2.85980431645 0 -2.85731190934 2.85980431645 -90 -0.699676988352 0.409944114476 0.810926706914 149.633822947 -120.366177053 46.8792052925 -3.68759914715e-06 -1.29095087896e-05 1.34258651564e-05 -105.939435701 152.379426409
0.87677899369 0.017774436985 2.52189879045 -0.69165163875 -2.42519892747 0 -2.83062176885 0 -2.82863612026 2.83062176885 -90 -0.69165163875 0.405422841376 0.801716735521 149.622682822 -120.377317178 34.1791560038 -2.20549257952e-06 -7.73186506814e-06 8.04027063336e-06 -105.917995493 108.870710222
0.8769205529 0.017636552076 2.50033556384 -0.684977857122 -2.40467912722 0 -2.80634186313 0 -2.80477414538 2.80634186313 -90 -0.684977857122 0.401662735914 0.794057723904 149.613237735 -120.386762265 21.3448215516 -1.14040935347e-06 -4.00261090477e-06 4.16190242689e-06 -105.899899459 66.8682865163
0.87703851892 0.017521647985 2.48238996243 -0.679428809058 -2.38760024878 0 -2.78613562252 0 -2.78491311235 2.78613562252 -90 -0.679428809058 0.398535373747 0.787689024084 149.60530312 -120.39469688 9.43097365565 -4.2378708299e-07 -1.48877385025e-06 1.5479158976e-06 -105.884721316 29.1561418481
0.87713682392 0.017425894576 2.46745180026 -0.674815014718 -2.37338190793 0 -2.76931585525 0 -2.76837886762 2.76931585525 -90 -0.674815014718 0.395933947322 0.782393149615 149.598679983 -120.401320017 2.28155778639 -8.48997707839e-08 -2.98504432154e-07 3.10343179148e-07 -105.872046246 6.96583172488
0.87721874477 0.017346100068 2.45501480102 -0.670978208003 -2.36154283656 0 -2.75531242027 0 -2.75461186105 2.75531242027 -90 -0.670978208003 0.393769583712 0.777988614875 149.593168497 -120.406831503 0.494630353316 -1.49134764451e-08 -5.24783659164e-08 5.45563133895e-08 -105.861484133 1.49312732134
0.87728701213 0.017279604645 2.4446586019 -0.667786572112 -2.35168353866 0 -2.74365194598 0 -2.74314735901 2.74365194598 -90 -0.667786572112 0.391968407319 0.774324338485 149.588583936 -120.411416064 0.193503543246 -4.78444463542e-09 -1.68465773891e-08 1.75127995225e-08 -105.852685985 0.578896747825
0.87734390161 0.017224191792 2.43603397282 -0.665130846399 -2.34347203901 0 -2.73394117581 0 -2.73359916219 2.73394117581 -90 -0.665130846399 0.390469136798 0.771275068687 149.584769721 -120.415230279 0.090324823495 -1.84344860568e-09 -6.49433105759e-09 6.75089982395e-09 -105.845357021 0.268243978387
0.8773913095 0.017178014415 2.42885062752 -0.662920498753 -2.33663230562 0 -2.72585323638 0 -2.72564618797 2.72585323638 -90 -0.662920498753 0.389220930764 0.768736991297 149.581595717 -120.418404283 0.0440765425176 -7.45099383662e-10 -2.62603485496e-09 2.72969480531e-09 -105.839251552 0.130104170164
0.87743081608 0.017139533267 2.42286717855 -0.66108045598 -2.33093474036 0 -2.7191163221 0 -2.71902138638 2.7191163221 -90 -0.66108045598 0.38818158174 0.766623995346 149.578953925 -120.421046075 0.0212558032019 -2.98373739517e-10 -1.05195611843e-09 1.09345270327e-09 -105.834165047 0.0624262810977
0.87746373823 0.017107465644 2.417882827 -0.659548414651 -2.32618830657 0 -2.71350433455 0 -2.71350257701 2.71350433455 -90 -0.659548414651 0.387316027977 0.764864600345 149.576754706 -120.423245294 0.00972201493905 -1.13582753307e-10 -4.00565661811e-10 4.16357931739e-10 -105.829927241 0.0284327644164
0.87749117335 0.017080742625 2.41373049004 -0.658272634754 -2.32223401345 0 -2.70882914222 0 -2.70890485968 2.70882914222 -90 -0.658272634754 0.386595128769 0.763399433403 149.574923629 -120.425076371 0.00403332146349 -3.93141378511e-11 -1.38679495192e-10 1.44144400214e-10 -105.826396382 0.0117544253897
0.87751403596 0.017058473442 2.41642437157 -0.6585970855 -2.32494203806 0 -2.71181531732 0 -2.70507432431 2.71181531732 -90 -0.6585970855 0.386873279258 0.763820065671 149.569246177 -120.430753823 0.0016619590814 -1.37751244838e-11 -4.86078358227e-11 5.05220376458e-11 -105.816265764 0.00483891122856
0.87753308813 0.01703991579 2.4278022076 -0.660883736893 -2.33611991249 0 -2.72451312935 0 -2.70188283371 2.72451312935 -90 -0.660883736893 0.388393216866 0.766561546516 149.557771685 -120.442228315 0.000604674933205 -4.26854545836e-12 -1.50886358461e-11 1.56807975571e-11 -105.796104051 0.00178204461848
0.87645885494 0.018687106373 2.63457585748 -0.722580806406 -2.53354793433 0 -2.95714808408 0 -2.97819969527 2.95714808408 -90 -0.722580806406 0.42360014975 0.837591886265 149.619893466 -120.380106534 64.9624918012 -6.85582182744e-06 -2.40379823893e-05 2.49965407918e-05 -105.918640621 225.448334585
0.87669986041 0.018445149348 2.61915404332 -0.717842325055 -2.51886248434 0 -2.93978463859 0 -2.93622420186 2.93978463859 -90 -0.717842325055 0.420922154245 0.832149704266 149.613914352 -120.386085648 59.1223352689 -5.77340457123e-06 -2.02548643681e-05 2.10616206469e-05 -105.906982946 203.078821137
0.8769006983 0.018243518493 2.58760068267 -0.708145374997 -2.4888160916 0 -2.90425895848 0 -2.9013160482 2.90425895848 -90 -0.708145374997 0.415442866878 0.821013220765 149.601481252 -120.398518748 46.3113202487 -3.68763464155e-06 -1.2958115359e-05 1.3472618656e-05 -105.882851969 155.271261306
0.8770680632 0.018075492781 2.56135524009 -0.700078044746 -2.46382419607 0 -2.87470998464 0 -2.87227545417 2.87470998464 -90 -0.700078044746 0.410885788577 0.811749010647 149.590791996 -120.409208004 33.608766235 -2.19582274178e-06 -7.72644563161e-06 8.03241037472e-06 -105.862289891 110.430200157
0.87720753396 0.017935471353 2.53951811507 -0.693368551689 -2.4430290008 0 -2.85012458283 0 -2.84810931894 2.85012458283 -90 -0.693368551689 0.40709558203 0.804044037411 149.581722054 -120.418277946 20.7734706421 -1.12434278834e-06 -3.96063189082e-06 4.11712956421e-06 -105.844923067 67.1353197528
0.87732375959 0.01781878683 2.52134419392 -0.687789291595 -2.42572070023 0 -2.82966366597 0 -2.82799471205 2.82966366597 -90 -0.687789291595 0.403942965736 0.797636558309 149.574100199 -120.425899801 8.99229192262 -4.09488130847e-07 -1.44373920728e-06 1.50068782656e-06 -105.830350972 28.6795187567
0.87742061428 0.017721549728 2.50621571605 -0.683150024581 -2.41131122202 0 -2.81263160253 0 -2.81124908181 2.81263160253 -90 -0.683150024581 0.401320380514 0.792308053549 149.567737823 -120.432262177 2.10942994539 -7.94164504259e-08 -2.80226006335e-07 2.91262092398e-07 -105.818179533 6.64340542208
0.87750132653 0.017640518809 2.4936200856 -0.679291773603 -2.39931290597 0 -2.79845120841 0 -2.79730586985 2.79845120841 -90 -0.679291773603 0.399138302445 0.787876097074 149.562443325 -120.437556675 0.47003186408 -1.43406581272e-08 -5.06421049733e-08 5.26334293991e-08 -105.808035537 1.46368541624
0.87756858673 0.017572993043 2.48313167065 -0.676082110121 -2.38932093244 0 -2.78664323837 0 -2.78569449467 2.78664323837 -90 -0.676082110121 0.397322305921 0.784188803357 149.558039148 -120.441960852 0.186108686081 -4.65810137066e-09 -1.64596040609e-08 1.71060380681e-08 -105.799584488 0.574375589346
0.8776246369 0.017516721572 2.47439684378 -0.673411253182 -2.38099888715 0 -2.77680953302 0 -2.77602387961 2.77680953302 -90 -0.673411253182 0.395810645878 0.781120238635 149.554374916 -120.445625084 0.0871192141025 -1.80013496449e-09 -6.36399811309e-09 6.6136954358e-09 -105.792543866 0.266907464629
0.87767134537 0.017469828679 2.46712165494 -0.671188222749 -2.37406704434 0 -2.76861913339 0 -2.76796887317 2.76861913339 -90 -0.671188222749 0.394552089049 0.778566005193 149.551325645 -120.448674355 0.0424951963558 -7.2736926635e-10 -2.5725005468e-09 2.67335494023e-09 -105.786678084 0.129404776307
0.8777102691 0.017430751268 2.46106166001 -0.669337560885 -2.36829272789 0 -2.76179682472 0 -2.76125903316 2.76179682472 -90 -0.669337560885 0.393504096834 0.776439493535 149.548787609 -120.451212391 0.0204449061363 -2.90609637472e-10 -1.02814638664e-09 1.06842837599e-09 -105.781790927 0.0619443399121
0.87774270554 0.017398186759 2.4560135143 -0.667796636633 -2.36348233999 0 -2.75611366901 0 -2.7556693504 2.75611366901 -90 -0.667796636633 0.392631329012 0.774668800457 149.546674713 -120.453325287 0.00931222016139 -1.1017537379e-10 -3.89895469091e-10 4.05163083412e-10 -105.777718992 0.0280956816238
0.87776973591 0.017371049668 2.45180801023 -0.66651343128 -2.35947475398 0 -2.75137916444 0 -2.75101256616 2.75137916444 -90 -0.66651343128 0.391904410461 0.773194194617 149.544915467 -120.455084533 0.00383882339376 -3.78962784246e-11 -1.34139699545e-10 1.39390067618e-10 -105.774326201 0.0115412861314
0.87779226121 0.017348435426 2.44830431597 -0.665444717208 -2.35613584327 0 -2.74743475771 0 -2.7471328049 2.74743475771 -90 -0.665444717208 0.391298914442 0.771966031215 149.543450481 -120.456549519 0.00134777813724 -1.1131854186e-11 -3.94100456702e-11 4.09520478602e-11 -105.771499213 0.00404007404742
0.8778110323 0.017329590224 2.44658072474 -0.664919070139 -2.35449328736 0 -2.74549436676 0 -2.74390028977 2.74549436676 -90 -0.664919070139 0.391001079406 0.771361948085 149.542729978 -120.457270022 0.000579508472061 -4.11398524783e-12 -1.45666104993e-11 1.51364151363e-11 -105.770108417 0.0017333440404
0.87675782396 0.018996731537 2.67416728737 -0.730831862694 -2.57236343456 0 -3.00137290092 0 -3.02288866226 3.00137290092 -90 -0.730831862694 0.429009466355 0.847445806491 149.586511012 -120.413488988 64.3712933042 -6.86960529729e-06 -2.41792618054e-05 2.51361958154e-05 -105.860543601 230.163001269
0.87699509075 0.018751210092 2.65855882087 -0.726072277632 -2.55748938423 0 -2.98380147584 0 -2.98041462723 2.98380147584 -90 -0.726072277632 0.426312091614 0.841975664608 149.58079808 -120.41920192 58.5474647678 -5.78202427277e-06 -2.03628841684e-05 2.11678763295e-05 -105.849397782 207.203957339
0.87719281308 0.018546608887 2.62662309587 -0.71633146611 -2.52705682839 0 -2.94784972201 0 -2.94509057599 2.94784972201 -90 -0.71633146611 0.420792893619 0.830781253338 149.568908725 -120.431091275 45.7599439482 -3.68563051639e-06 -1.29998914154e-05 1.35122573639e-05 -105.826313014 158.089382973
0.87735758168 0.018376107883 2.60005881513 -0.708226417518 -2.50174327848 0 -2.91794542634 0 -2.91570309421 2.91794542634 -90 -0.708226417518 0.416202147853 0.821467555067 149.55867051 -120.44132949 33.0600474019 -2.18532639993e-06 -7.71808942341e-06 8.02150686229e-06 -105.806619271 111.940721121
0.87749488885 0.018234023713 2.57795585417 -0.701484754506 -2.48068012647 0 -2.89306374513 0 -2.89124767534 2.89306374513 -90 -0.701484754506 0.412383618661 0.813720568665 149.549975751 -120.450024249 20.2276366625 -1.10823056605e-06 -3.91821459744e-06 4.07192640455e-06 -105.789973793 67.3722396826
0.87760931149 0.018115620238 2.55956030867 -0.695878223561 -2.46314857973 0 -2.87235580684 0 -2.87089185343 2.87235580684 -90 -0.695878223561 0.409207227113 0.807277590495 149.542666594 -120.457333406 8.58059188156 -3.95658976021e-07 -1.40006234894e-06 1.45489556133e-06 -105.776001356 28.2065137225
0.8777046637 0.018016950675 2.54424707957 -0.691215924887 -2.4485530972 0 -2.85511780923 0 -2.85394511009 2.85511780923 -90 -0.691215924887 0.406564712026 0.80191917867 149.53656484 -120.46343516 1.95461858073 -7.43916499214e-08 -2.63446953925e-07 2.7374884833e-07 -105.764328283 6.34473533085
0.87778412386 0.017934726039 2.531497445 -0.687338254815 -2.43639980563 0 -2.84076574565 0 -2.83983423511 2.84076574565 -90 -0.687338254815 0.40436594002 0.797462060269 149.531487168 -120.468512832 0.449135523916 -1.3856626963e-08 -4.91088880779e-08 5.10263615706e-08 -105.754598028 1.44165060863
0.87785034067 0.017866205509 2.52088066303 -0.68411224407 -2.42627870841 0 -2.82881467869 0 -2.82808309263 2.82881467869 -90 -0.68411224407 0.40253597028 0.793753624345 149.527263238 -120.472736762 0.180024467212 -4.55791794449e-09 -1.616318879e-08 1.67935508197e-08 -105.746490425 0.572725022774
0.87790552134 0.017809105068 2.51203884222 -0.681427649798 -2.4178490753 0 -2.81886169835 0 -2.81829597183 2.81886169835 -90 -0.681427649798 0.40101262305 0.790667320086 149.523748883 -120.476251117 0.084566125475 -1.76786157712e-09 -6.27214532052e-09 6.51652902751e-09 -105.739735055 0.267084459835
0.87795150524 0.017761521366 2.50467447699 -0.679193092127 -2.41082758661 0 -2.81057188382 0 -2.81014385408 2.81057188382 -90 -0.679193092127 0.399744297202 0.788098219789 149.520824278 -120.479175722 0.041270517552 -7.14759752761e-10 -2.53686967381e-09 2.63563857815e-09 -105.734106315 0.129561604695
0.87798982515 0.017721868282 2.49854015894 -0.677332769128 -2.40497857345 0 -2.80366671702 0 -2.80335307245 2.80366671702 -90 -0.677332769128 0.398688143569 0.785959260912 149.518389964 -120.481610036 0.0198301712216 -2.85230221112e-10 -1.01268453752e-09 1.05208672801e-09 -105.729416222 0.0619427854908
0.87802175841 0.017688824045 2.49343007014 -0.675783755469 -2.40010594339 0 -2.79791450354 0 -2.79769592721 2.79791450354 -90 -0.675783755469 0.397808560149 0.784178154519 149.516363386 -120.483636614 0.00900541077512 -1.07825369812e-10 -3.82926791302e-10 3.97818137764e-10 -105.725508176 0.0280131068921
0.87804836946 0.017661287181 2.48917294265 -0.674493782282 -2.39604649326 0 -2.79312244522 0 -2.79298291672 2.79312244522 -90 -0.674493782282 0.39707595196 0.782694842763 149.514675989 -120.485324011 0.00369349321252 -3.69038037013e-11 -1.31087603834e-10 1.36183165013e-10 -105.722251724 0.0114496153118
0.87807054533 0.017638339794 2.4856262252 -0.673419409567 -2.39266436475 0 -2.78913007223 0 -2.78905629478 2.78913007223 -90 -0.673419409567 0.396465707486 0.781459404564 149.513270818 -120.486729182 0.00128629251847 -1.07542276151e-11 -3.8207450061e-11 3.96921021754e-11 -105.719538186 0.00397591913921
0.87808902523 0.017619216971 2.48853594917 -0.6738099146 -2.39557721151 0 -2.79235871384 0 -2.78578472538 2.79235871384 -90 -0.6738099146 0.396781502336 0.781956137858 149.507837235 -120.492162765 0.000417918248232 -2.9656428454e-12 -1.05389236426e-11 1.09482406656e-11 -105.710003681 0.00129029026598
0.87810442514 0.017603281286 2.49971722019 -0.67601744826 -2.40657154279 0 -2.80483275923 0 -2.7830588453 2.80483275923 -90 -0.67601744826 0.398261216439 0.78460919372 149.496444539 -120.503555461 0.000106161967119 -6.3794885127e-13 -2.27105018543e-12 2.35895054666e-12 -105.690306409 0.000331681100341
0.877062634 0.019300614294 2.71292420641 -0.738782766612 -2.61039381855 0 -3.04465299873 0 -3.06643488254 3.04465299873 -90 -0.738782766612 0.434259180184 0.856960369799 149.552925347 -120.447074653 63.7814801076 -6.8807015074e-06 -2.43118431667e-05 2.52667753178e-05 -105.802557018 234.709850387
0.87729613089 0.019051563282 2.69713441887 -0.734004398541 -2.5953361016 0 -3.02687969381 0 -3.02347411959 3.02687969381 -90 -0.734004398541 0.431543592214 0.85146485471 149.547478339 -120.452521661 57.9744785625 -5.7883672706e-06 -2.04634365172e-05 2.12663480977e-05 -105.791916418 211.172040023
0.87749071163 0.018844020772 2.66482734134 -0.724224506738 -2.56452757422 0 -2.9905144623 0 -2.98774395683 2.9905144623 -90 -0.724224506738 0.425986888081 0.840217846197 149.536132227 -120.463867773 45.2117501252 -3.68213512886e-06 -1.30365379145e-05 1.35465674518e-05 -105.769864494 160.771389316
0.87765286225 0.018671068679 2.63795335261 -0.716085707637 -2.53890081633 0 -2.96026528642 0 -2.95801770103 2.96026528642 -90 -0.716085707637 0.421364470091 0.830859083674 149.526344606 -120.473655394 32.516068227 -2.17387893734e-06 -7.7061861503e-06 8.00693892842e-06 -105.751028184 113.331016886
0.87778798776 0.018526941936 2.61559213257 -0.709315164975 -2.51757671604 0 -2.93509598858 0 -2.93327973162 2.93509598858 -90 -0.709315164975 0.417519272542 0.823073752627 149.518024639 -120.481975361 19.6900509042 -1.09164830941e-06 -3.87374316047e-06 4.0246224704e-06 -105.73509504 67.5111381359
0.87790059236 0.018406836316 2.59698125609 -0.703684090686 -2.49982774486 0 -2.91414822164 0 -2.91268828569 2.91414822164 -90 -0.703684090686 0.414320476777 0.816598316351 149.511027846 -120.488972154 8.18557660465 -3.82026884037e-07 -1.35673049559e-06 1.40949020444e-06 -105.721714736 27.7000152406
0.87799442952 0.018306748299 2.58148850552 -0.699001019952 -2.48505109712 0 -2.8967102647 0 -2.89554507543 2.8967102647 -90 -0.699001019952 0.411659167573 0.811212516738 149.505186423 -120.494813577 1.81376957844 -6.97534795203e-08 -2.47910427167e-07 2.57536682356e-07 -105.710533696 6.060184225
0.87807262716 0.018223341618 2.56858921602 -0.695105803598 -2.47274685562 0 -2.88219149854 0 -2.88127039896 2.88219149854 -90 -0.695105803598 0.409444642912 0.806732324456 149.500325333 -120.499674667 0.430171577 -1.34148414964e-08 -4.7712702064e-08 4.95626921758e-08 -105.701211855 1.42130390009
0.87813779185 0.018153836051 2.55784768377 -0.691864999488 -2.46249998298 0 -2.87010146352 0 -2.8693827012 2.87010146352 -90 -0.691864999488 0.407601480544 0.803004478618 149.496281475 -120.503718525 0.1744213508 -4.46519404081e-09 -1.58904247096e-08 1.6505866069e-08 -105.693443245 0.571195083347
0.87819209577 0.018095914745 2.54890187956 -0.689167958981 -2.45396554952 0 -2.86003264381 0 -2.85948174632 2.86003264381 -90 -0.689167958981 0.406067094285 0.799901873951 149.49291689 -120.50708311 0.08220654009 -1.73789071091e-09 -6.1875076552e-09 6.42693737191e-09 -105.686969417 0.267257547128
0.87823734903 0.01804764699 2.54145084382 -0.686922947562 -2.44685673534 0 -2.85164627325 0 -2.85123474113 2.85164627325 -90 -0.686922947562 0.404789537907 0.797319103168 149.490116894 -120.509883106 0.0401388132619 -7.03044789409e-10 -2.50402419478e-09 2.60084805021e-09 -105.681574635 0.129708641167
0.87827506008 0.018007423861 2.53524428833 -0.685053856648 -2.44093495668 0 -2.84466062718 0 -2.84436486833 2.84466062718 -90 -0.685053856648 0.403725670507 0.795168692339 149.48778629 -120.51221371 0.019263430414 -2.80238429455e-10 -9.98427867457e-10 1.03701109444e-09 -105.677079052 0.0619382045341
0.87830648596 0.017973904586 2.5300739935 -0.683497497483 -2.43600169282 0 -2.83884133681 0 -2.83864180114 2.83884133681 -90 -0.683497497483 0.402839643987 0.793378001366 149.485846049 -120.514153951 0.00872392914337 -1.05652885038e-10 -3.76513090899e-10 3.91055842101e-10 -105.673332784 0.0279331557171
0.87833267419 0.017945971857 2.52576668827 -0.682201376074 -2.43189171696 0 -2.83399337308 0 -2.83387384707 2.83399337308 -90 -0.682201376074 0.402101656122 0.791886673817 149.484230541 -120.515769459 0.00356125834863 -3.59931593258e-11 -1.28294613796e-10 1.33247961065e-10 -105.670210931 0.0113630124851
0.87835449771 0.017922694584 2.52217815199 -0.68112186127 -2.42846748547 0 -2.82995440686 0 -2.82990143302 2.82995440686 -90 -0.68112186127 0.401486921389 0.790644536057 149.482885241 -120.517114759 0.00123105302339 -1.0411941991e-11 -3.71187102312e-11 3.85513617358e-11 -105.66760941 0.00391646333601
0.87837268398 0.017903296855 2.51918832107 -0.680222673058 -2.42561448053 0 -2.82658930031 0 -2.82659169926 2.82658930031 -90 -0.680222673058 0.400974819784 0.789609862663 149.481764826 -120.518235174 0.00032930968071 -2.33638237059e-12 -8.33034725771e-12 8.65178498218e-12 -105.665441492 0.0010450659648
0.87838783921 0.017887132082 2.51771757738 -0.679780406253 -2.42421102638 0 -2.82493395417 0 -2.82383401254 2.82493395417 -90 -0.679780406253 0.400722927785 0.789100950179 149.481213792 -120.518786208 0.000100872296524 -6.09383453581e-13 -2.17296540927e-12 2.2567959377e-12 -105.664374946 0.000319486424658
0.87737362392 0.019598176057 2.75082015265 -0.746429889274 -2.64761251182 0 -3.08695873989 0 -3.10874286973 3.08695873989 -90 -0.746429889274 0.439346228068 0.866130909893 149.519158501 -120.480841499 63.1855164701 -6.8855182031e-06 -2.44229485723e-05 2.53750062318e-05 -105.744703005 239.059357733
0.87760332834 0.019345621458 2.73485443579 -0.741634975223 -2.63237615072 0 -3.06898971479 0 -3.06530577815 3.06898971479 -90 -0.741634975223 0.436613564062 0.860612521209 149.513976671 -120.486023329 57.3951577747 -5.78928704117e-06 -2.05453402546e-05 2.13454205993e-05 -105.734559854 214.953116137
0.87779474869 0.019135159292 2.7021868917 -0.731820546082 -2.60120178452 0 -3.03222344486 0 -3.0291781164 3.03222344486 -90 -0.731820546082 0.431021660334 0.8493179903 149.503172259 -120.496827741 44.6566412631 -3.67485260788e-06 -1.30599233979e-05 1.35670995407e-05 -105.713525076 163.285344523
0.87795426564 0.018959774153 2.67501222197 -0.723651786555 -2.57527021176 0 -3.00163970538 0 -2.99912022754 3.00163970538 -90 -0.723651786555 0.426369493617 0.839918397303 149.493834013 -120.506165987 31.9647491094 -2.15983681649e-06 -7.68494210389e-06 7.98268415101e-06 -105.695533715 114.567162129
0.87808719644 0.018813619871 2.65240023417 -0.716855526568 -2.55369212192 0 -2.97619135417 0 -2.97410563213 2.97619135417 -90 -0.716855526568 0.422499232241 0.832098254158 149.485887885 -120.514112115 19.1480613492 -1.07352503997e-06 -3.82346712116e-06 3.97131723857e-06 -105.68030298 67.5202929229
0.87819797211 0.018691824635 2.63358024754 -0.711202546329 -2.53573150058 0 -2.95501087103 0 -2.95328348192 2.95501087103 -90 -0.711202546329 0.419279370455 0.825593306063 149.479202704 -120.520797296 7.79720730502 -3.68043352468e-07 -1.31184552157e-06 1.36249587364e-06 -105.667506888 27.1380810669
0.87829028516 0.018590328606 2.61791314398 -0.706500900214 -2.52077848283 0 -2.93737886519 0 -2.93594789212 2.93737886519 -90 -0.706500900214 0.416600382358 0.820182573017 149.473620977 -120.526379023 1.68198228897 -6.53166846545e-08 -2.32985493465e-07 2.41968019656e-07 -105.656811491 5.78000955497
0.87836721271 0.018505748581 2.60486849607 -0.702589965471 -2.50832727658 0 -2.92269831057 0 -2.92151281204 2.92269831057 -90 -0.702589965471 0.414371033991 0.81568134969 149.468975909 -120.531024091 0.41179075378 -1.29721761485e-08 -4.6304713006e-08 4.80874651921e-08 -105.64789287 1.39944506196
0.87843131899 0.018435265227 2.59400578705 -0.69933588951 -2.49795794233 0 -2.91047339531 0 -2.90949138422 2.91047339531 -90 -0.69933588951 0.412515452978 0.81193579478 149.465111635 -120.534888365 0.168743038283 -4.3651207931e-09 -1.55899766364e-08 1.61895555117e-08 -105.640459023 0.568412764214
0.8784847409 0.018376529098 2.58495897148 -0.696627668927 -2.48932146412 0 -2.90029213654 0 -2.89947894577 2.90029213654 -90 -0.696627668927 0.410970672417 0.808818305441 149.461896384 -120.538103616 0.0797624631657 -1.70414617869e-09 -6.08901357809e-09 6.32299051584e-09 -105.634263277 0.266742909679
0.87852925916 0.018327582325 2.57742373888 -0.694373257609 -2.48212761774 0 -2.89181204052 0 -2.89113900875 2.89181204052 -90 -0.694373257609 0.409684422781 0.806223042865 149.459220605 -120.540779395 0.0389516523085 -6.89569600369e-10 -2.46476233878e-09 2.55940637624e-09 -105.62909961 0.129484819259
0.8785663577 0.018286793347 2.57114700389 -0.692496275664 -2.47613498134 0 -2.88474827058 0 -2.88419167276 2.88474827058 -90 -0.692496275664 0.408613289238 0.804062161147 149.45699335 -120.54300665 0.0186649748545 -2.7446798228e-10 -9.81336988886e-10 1.01899714204e-09 -105.624796192 0.0617390295217
0.87859727316 0.018252802532 2.56591821549 -0.690933300642 -2.47114267109 0 -2.8788638637 0 -2.87840403906 2.8788638637 -90 -0.690933300642 0.407721192612 0.802262702205 149.455139114 -120.544860886 0.00842649552717 -1.03163215012e-10 -3.68942219582e-10 3.83094036342e-10 -105.621209763 0.027757636663
0.87862303604 0.018224476852 2.56156215963 -0.689631638629 -2.46698349243 0 -2.87396162864 0 -2.87358226975 2.87396162864 -90 -0.689631638629 0.40697813621 0.80076403917 149.453595189 -120.546404811 0.00342235429055 -3.49699088778e-11 -1.25088133714e-10 1.29884330045e-10 -105.6182209 0.0112347840485
0.8786445051 0.01820087212 2.55793299293 -0.68854748755 -2.46351825963 0 -2.86987743027 0 -2.86956500305 2.86987743027 -90 -0.68854748755 0.406359170645 0.79951576839 149.452309477 -120.547690523 0.00117377420437 -1.00378590081e-11 -3.59116044224e-11 3.72880976999e-11 -105.615730062 0.0038421683033
0.87866239599 0.018181201509 2.55490929779 -0.6876444221 -2.46063108555 0 -2.86647462376 0 -2.86621788749 2.86647462376 -90 -0.6876444221 0.405843538211 0.798475969703 149.451238675 -120.548761325 0.000310310926949 -2.22623314082e-12 -7.96568032223e-12 8.27092443016e-12 -105.613654283 0.00101330236331
0.87867730507 0.018164809333 2.55342189211 -0.687200244176 -2.45921082047 0 -2.86480072824 0 -2.86342904583 2.86480072824 -90 -0.687200244176 0.405589907769 0.797964531883 149.450712036 -120.549287964 9.36470652e-05 -5.71883820617e-13 -2.04646557879e-12 2.12487020454e-12 -105.612633043 0.000305214829686
0.87768535558 0.019894940443 2.78790898601 -0.753793084171 -2.68406977132 0 -3.12835095657 0 -3.15077132298 3.12835095657 -90 -0.753793084171 0.444281185242 0.874979915607 149.485238173 -120.514761827 62.6014974719 -6.88865975837e-06 -2.45285842742e-05 2.54775439108e-05 -105.687034017 243.278145034