TITLE = "Electromagnetic Field"
VARIABLES = X Y E ER EI EvR EvI EvR' EvI' Ev EvPhase EpR EpI Ep EpPhase EpToEvPhaseShift elConductivity Jr Ji J Jphase QJ
ZONE N=311, E=273, F=FEPOINT, ET=QUADRILATERAL
0.88071465832 0.021544068317 2.99584023655 -0.784657203771 -2.89125782239 0 -3.35933422027 0 -3.36010931037 3.35933422027 -90 -0.784657203771 0.468076397885 0.913664293757 149.182395334 -120.817604666 31.9605100749 -2.49131410062e-06 -9.17984483773e-06 9.51189766517e-06 -105.183755712 143.423727368
0.8808488377 0.021348730333 2.98378577424 -0.781278094642 -2.87968436134 0 -3.34578524259 0 -3.32755114795 3.34578524259 -90 -0.781278094642 0.466100881252 0.909750237225 149.180207258 -120.819792742 26.1682496105 -1.91739856064e-06 -7.06649668242e-06 7.32200743821e-06 -105.179319844 116.741840418
0.88096065386 0.021185948679 2.95916375765 -0.77437556511 -2.85604491966 0 -3.31811061113 0 -3.30044915445 3.31811061113 -90 -0.77437556511 0.462065691477 0.90175507768 149.175693875 -120.824306125 13.6158308434 -8.33430966804e-07 -3.07340400821e-06 3.18440251977e-06 -105.170188562 59.8144043077
0.88105383399 0.021050297301 2.93866644985 -0.768629585758 -2.83636546157 0 -3.29507211856 0 -3.2778848533 3.29507211856 -90 -0.768629585758 0.45870665699 0.895099568758 149.171872675 -120.828127325 4.31687350966 -2.21343344699e-07 -8.16655254546e-07 8.46119779945e-07 -105.16247451 18.717000191
0.88113148409 0.020937254486 2.92159999511 -0.763847290263 -2.81997940181 0 -3.27588985533 0 -3.25909563535 3.27588985533 -90 -0.763847290263 0.455910453526 0.889560017633 149.168677619 -120.831322381 0.810341515647 -3.37234845613e-08 -1.24486724233e-07 1.2897371029e-07 -105.156007654 3.4675599162
0.88119619251 0.02084305214 2.90738812742 -0.759866717209 -2.80633360104 0 -3.25991609405 0 -3.24344792776 3.25991609405 -90 -0.759866717209 0.453582493005 0.884948872095 149.166016542 -120.833983458 0.270236049824 -9.17503848394e-09 -3.38826307761e-08 3.51029058779e-08 -105.150601417 1.14403900844
0.8812501162 0.020764550185 2.89555198089 -0.756552874198 -2.79496851718 0 -3.24661259085 0 -3.23041509641 3.24661259085 -90 -0.756552874198 0.451644073669 0.881109880192 149.163801143 -120.836198857 0.120908325975 -3.380107618e-09 -1.24865704015e-08 1.29359795941e-08 -105.146085238 0.507489673877
0.8812950526 0.020699131889 2.88569344465 -0.753793643583 -2.78550207182 0 -3.23553187336 0 -3.21955921198 3.23553187336 -90 -0.753793643583 0.450029801541 0.877913252857 149.161956809 -120.838043191 0.0585911539281 -1.3545485204e-09 -5.00524227371e-09 5.1852918848e-09 -105.142314293 0.24419748436
0.88133249961 0.020644616643 2.87748141767 -0.751495890549 -2.77761646569 0 -3.22630178938 0 -3.21051598019 3.22630178938 -90 -0.751495890549 0.448685323694 0.875251160137 149.160421282 -120.839578718 0.0285957068024 -5.48249661481e-10 -2.0263130528e-09 2.09917180842e-09 -105.139166695 0.118487896188
0.88136370544 0.02059918727 2.87344024484 -0.750365325856 -2.77373587755 0 -3.2217596272 0 -3.20298227187 3.2217596272 -90 -0.750365325856 0.448023749657 0.873941303809 149.159665866 -120.840334134 0.0179499050862 -2.99952651409e-10 -1.10877915345e-09 1.14863519196e-09 -105.137616075 0.0741031212592
0.88106204181 0.021781819224 3.00972477088 -0.786947579754 -2.90502233652 0 -3.37477509253 0 -3.39121477691 3.37477509253 -90 -0.786947579754 0.469752756013 0.91649016118 149.165799265 -120.834200735 31.5989286936 -2.47016396883e-06 -9.11843585062e-06 9.44709486481e-06 -105.157326521 143.10648544
0.8811932863 0.021584422057 2.99762797765 -0.783568814255 -2.89340482006 0 -3.36117952594 0 -3.35842261218 3.36117952594 -90 -0.783568814255 0.467774705878 0.912575110701 149.163694575 -120.836305425 25.804496545 -1.89678866334e-06 -7.00315278277e-06 7.25547845015e-06 -105.15303096 116.180370753
0.8813026567 0.021419924417 2.97291934258 -0.776666870874 -2.86967526482 0 -3.33340955556 0 -3.33112506338 3.33340955556 -90 -0.776666870874 0.463734290742 0.904577795587 149.15935184 -120.84064816 13.2867302775 -8.16211022592e-07 -3.01522182212e-06 3.12374216526e-06 -105.144186797 58.9036456416
0.8813937987 0.021282843051 2.95234968356 -0.770921172708 -2.84992059663 0 -3.3102914147 0 -3.30839741634 3.3102914147 -90 -0.770921172708 0.460370818074 0.897920269174 149.155673288 -120.844326712 4.13917125452 -2.12832413952e-07 -7.86604682886e-07 8.14889378551e-07 -105.136712678 18.1071580302
0.88146975037 0.021168608579 2.93522281817 -0.766138953769 -2.83347178565 0 -3.29104263974 0 -3.28947181124 3.29104263974 -90 -0.766138953769 0.457570854097 0.8923788692 149.152597107 -120.847402893 0.778855914127 -3.24908430408e-08 -1.201417059e-07 1.2445757307e-07 -105.130445791 3.36269581748
0.88153304343 0.021073413186 2.92096052585 -0.762158318325 -2.81977364351 0 -3.27501335615 0 -3.27371026399 3.27501335615 -90 -0.762158318325 0.455239712634 0.887766050147 149.15003475 -120.84996525 0.263136305576 -8.95855143659e-09 -3.31401497649e-08 3.43296577876e-08 -105.125205829 1.12413961748
0.88158578764 0.020994083691 2.90908230178 -0.758844334436 -2.80836490863 0 -3.26166351859 0 -3.26058243893 3.26166351859 -90 -0.758844334436 0.453298609968 0.88392557045 149.147901319 -120.852098681 0.118118969608 -3.31165984376e-09 -1.22547454248e-08 1.26943258136e-08 -105.120827923 0.500325622973
0.88162974115 0.020927975779 2.89918866086 -0.756084924868 -2.79886206379 0 -3.2505441434 0 -3.24964730471 3.2505441434 -90 -0.756084924868 0.451682079612 0.880727638963 149.146125057 -120.853874943 0.0572647663096 -1.32779770211e-09 -4.91479466192e-09 5.09099777258e-09 -105.117172005 0.240860083362
0.88166636908 0.020872885852 2.8909473515 -0.753786980031 -2.79094610767 0 -3.24128181256 0 -3.24053797008 3.24128181256 -90 -0.753786980031 0.450335704893 0.878064415017 149.144646075 -120.855353925 0.0279206915442 -5.36915962636e-10 -1.98780551508e-09 2.05904111896e-09 -105.114120127 0.116752624486
0.88169689235 0.02082697758 2.88901901436 -0.752822600844 -2.78920911504 0 -3.23906951775 0 -3.23294913376 3.23906951775 -90 -0.752822600844 0.449860402716 0.876992762208 149.138979259 -120.861020741 0.0145968046521 -2.38361260161e-10 -8.82823828023e-10 9.14436527206e-10 -105.104619462 0.0608615838039
0.88172232841 0.020788720687 2.8941343027 -0.753222471227 -2.7943996262 0 -3.24471020035 0 -3.22662668376 3.24471020035 -90 -0.753222471227 0.450310574149 0.877566923005 149.127102305 -120.872897695 0.00760766402133 -1.06134300908e-10 -3.93750401925e-10 4.07803713623e-10 -105.085389252 0.0318609477483
0.88140985048 0.022018945682 3.03713729978 -0.791423921578 -2.93220893363 0 -3.40525460713 0 -3.42209884782 3.40525460713 -90 -0.791423921578 0.473045673495 0.922021747917 149.132669072 -120.867330928 30.9167013473 -2.43070792586e-06 -9.00555335066e-06 9.32782666631e-06 -105.104728813 142.580622074
0.88153808899 0.021819593799 3.02495816007 -0.788046497959 -2.92050554606 0 -3.39156849004 0 -3.3890921611 3.39156849004 -90 -0.788046497959 0.471062943978 0.918105468224 149.130730288 -120.869269712 25.1199970581 -1.85832160664e-06 -6.88609292072e-06 7.13243616745e-06 -105.100711364 115.178302771
0.88164495441 0.021653467229 3.00008105938 -0.781147071106 -2.8966003798 0 -3.36361325469 0 -3.36161524624 3.36361325469 -90 -0.781147071106 0.467012874897 0.910105400343 149.126727015 -120.873272985 12.6737532109 -7.84213247263e-07 -2.90745502685e-06 3.01135966148e-06 -105.092436234 57.2252647845
0.88173400893 0.021515028421 2.97937066455 -0.775403042191 -2.87669913136 0 -3.34034031504 0 -3.3387377136 3.34034031504 -90 -0.775403042191 0.463641183675 0.903445123062 149.12333209 -120.87666791 3.8137988476 -1.9724142729e-07 -7.3159186861e-07 7.57714298314e-07 -105.085437403 16.9912070754
0.88180822103 0.021399662747 2.96212627901 -0.770621888864 -2.86012801565 0 -3.32096225697 0 -3.31968691729 3.32096225697 -90 -0.770621888864 0.460834241316 0.897901084201 149.120492224 -120.879507776 0.723939362031 -3.03502687834e-08 -1.12625871013e-07 1.16643595282e-07 -105.079566456 3.18323081536
0.88187006444 0.021303524686 2.94776588695 -0.766641883399 -2.84632785527 0 -3.30482504084 0 -3.30382084564 3.30482504084 -90 -0.766641883399 0.458497185574 0.89328579328 149.118126167 -120.881873833 0.251282470452 -8.6031059222e-09 -3.1937706149e-08 3.30761351749e-08 -105.074655611 1.09335816655
0.88192160062 0.021223409635 2.93580579731 -0.763328241876 -2.83483403797 0 -3.29138512255 0 -3.2906057792 3.29138512255 -90 -0.763328241876 0.456551084587 0.889443060775 149.11615581 -120.88384419 0.113636282507 -3.20469676981e-09 -1.19006108433e-08 1.23245547165e-08 -105.070551301 0.490259883938
0.88196454744 0.021156647092 2.92584385561 -0.760568990471 -2.8252602455 0 -3.28019058589 0 -3.27959784819 3.28019058589 -90 -0.760568990471 0.454930340389 0.88624311763 149.114515076 -120.885484924 0.0551994020257 -1.28759489389e-09 -4.78266921631e-09 4.95296175017e-09 -105.067122895 0.23648349185
0.88200033645 0.021101011639 2.91754557381 -0.758271088749 -2.81728513485 0 -3.270865555 0 -3.27042778354 3.270865555 -90 -0.758271088749 0.453580420155 0.883578123561 149.113148776 -120.886851224 0.026896244947 -5.20373114204e-10 -1.93328304087e-09 2.00209196795e-09 -105.064260262 0.114560153439
0.88203016063 0.021054648763 2.91063265746 -0.756357196515 -2.81064132834 0 -3.26309730129 0 -3.26278829295 3.26309730129 -90 -0.756357196515 0.452455972955 0.881358425595 149.112010934 -120.887989066 0.0125966570577 -2.0262083407e-10 -7.52901919101e-10 7.79690076719e-10 -105.061870828 0.0533947066712
0.88205501411 0.021016013032 2.90723110285 -0.755415550857 -2.80737216291 0 -3.25927487119 0 -3.25642359906 3.25927487119 -90 -0.755415550857 0.451902708285 0.880266306319 149.111451152 -120.888548848 0.00750044212564 -1.04947488336e-10 -3.90009797482e-10 4.03883210515e-10 -105.060693865 0.0316934023135
0.88176284911 0.022248277776 3.0636258099 -0.795635328822 -2.95850732622 0 -3.4346927226 0 -3.45157328053 3.4346927226 -90 -0.795635328822 0.476185396383 0.927247636505 149.099648473 -120.900351527 30.2190529402 -2.38888381806e-06 -8.88267750072e-06 9.19830108503e-06 -105.052600095 141.802606171
0.8818880732 0.022046985209 3.05136792672 -0.792260214995 -2.94672157413 0 -3.42092014624 0 -3.41835781519 3.42092014624 -90 -0.792260214995 0.474198572113 0.923331254191 149.097873107 -120.902126893 24.4205970288 -1.81779179427e-06 -6.76022588235e-06 7.0003593608e-06 -105.04885414 113.939744389
0.88199242661 0.021879241404 3.02632974612 -0.785365296935 -2.92264798191 0 -3.39278803149 0 -3.39070630432 3.39278803149 -90 -0.785365296935 0.470140049582 0.915330751093 149.094204295 -120.905795705 12.0624596088 -7.51615787856e-07 -2.7965498998e-06 2.89579338461e-06 -105.041134619 55.4265453968
0.88207938778 0.021739454899 3.00548475449 -0.779624604645 -2.90260612145 0 -3.36936726205 0 -3.36768284992 3.36936726205 -90 -0.779624604645 0.466761140598 0.908669660692 149.091088929 -120.908911071 3.5035912442 -1.821820619e-07 -6.78126173152e-07 7.02171992911e-07 -105.034600003 15.8828913861
0.88215185542 0.021622966145 2.98812795314 -0.774845907339 -2.88591766152 0 -3.3498657146 0 -3.34851015783 3.3498657146 -90 -0.774845907339 0.463948053079 0.90312459823 149.088482001 -120.911517999 0.673776900904 -2.83811815016e-08 -1.05688684474e-07 1.0943304718e-07 -105.029115801 3.01458302791
0.88221224513 0.021525892183 2.97367370682 -0.770867692529 -2.87201960703 0 -3.33362538454 0 -3.33254230191 3.33362538454 -90 -0.770867692529 0.461605777512 0.898508183359 149.086309453 -120.913690547 0.239784815439 -8.25343735726e-09 -3.0746354458e-08 3.18348509443e-08 -105.024526476 1.06165542796
0.88226256988 0.021444997215 2.96163528429 -0.767555363564 -2.86044413748 0 -3.32009939527 0 -3.31924227408 3.32009939527 -90 -0.767555363564 0.459655257795 0.894664324359 149.084499871 -120.915500129 0.10916488524 -3.09581708105e-09 -1.153609046e-08 1.19442661335e-08 -105.020689511 0.479248887117
0.88230450717 0.021377584741 2.95160798103 -0.764797082016 -2.85080224983 0 -3.30883303381 0 -3.30816344392 3.30883303381 -90 -0.764797082016 0.45803078398 0.891463311566 149.082992774 -120.917007226 0.0531037962633 -1.24579346067e-09 -4.64333795297e-09 4.80755582558e-09 -105.017483489 0.231506438352
0.88233945492 0.02132140768 2.94325517262 -0.762499903288 -2.8427703569 0 -3.29944808021 0 -3.29893422854 3.29944808021 -90 -0.762499903288 0.456677723311 0.888797336185 149.081737598 -120.918262402 0.0258450901068 -5.02939463946e-10 -1.87491877404e-09 1.9412030323e-09 -105.014805911 0.11201856401
0.88236857804 0.021274593462 2.93629677704 -0.760586555134 -2.83607920677 0 -3.29162984377 0 -3.29124539835 3.29162984377 -90 -0.760586555134 0.455550636997 0.886576758879 149.080692193 -120.919307807 0.0120650579636 -1.9521349657e-10 -7.27853489017e-10 7.53577544325e-10 -105.012570517 0.0520401732734
0.8823928473 0.021235581614 2.93287283023 -0.759645162341 -2.83278673551 0 -3.28778280343 0 -3.28483955563 3.28778280343 -90 -0.759645162341 0.454996067926 0.885484191161 149.080177859 -120.919822141 0.00715795505953 -1.0072845904e-10 -3.75604621056e-10 3.88876691919e-10 -105.011469321 0.030777351678
0.88211980066 0.022471406946 3.08924762817 -0.799601490564 -2.98397158999 0 -3.46315412237 0 -3.47990974498 3.46315412237 -90 -0.799601490564 0.479182532387 0.932190170622 149.066768419 -120.933231581 29.5317051527 -2.34616701242e-06 -8.75531462518e-06 9.06421813057e-06 -105.00097787 140.90741618
0.88224198779 0.022268209167 3.07691494827 -0.796229719189 -2.9721073182 0 -3.44929956348 0 -3.44649438937 3.44929956348 -90 -0.796229719189 0.477192245282 0.928274892138 149.065154022 -120.934845978 23.7331048704 -1.77672594975e-06 -6.63126322517e-06 6.86515962081e-06 -104.997497156 112.603563052
0.8823438104 0.022098877684 3.05172369095 -0.789341410761 -2.9478730947 0 -3.42099964836 0 -3.41867566725 3.42099964836 -90 -0.789341410761 0.473126553658 0.920276407615 149.061814673 -120.938185327 11.4736356502 -7.19566888996e-07 -2.68684567846e-06 2.7815315442e-06 -104.990320541 53.617337621
0.88242866257 0.021957768116 3.03075075522 -0.783605812431 -2.9276970977 0 -3.39743859693 0 -3.39551243019 3.39743859693 -90 -0.783605812431 0.469741499233 0.913616555781 149.058974696 -120.941025304 3.21604281718 -1.68035501291e-07 -6.27685361037e-07 6.49788368273e-07 -104.984239669 14.8261540658
0.88249937271 0.021840176808 3.01328707113 -0.778831036367 -2.91089667751 0 -3.37781983756 0 -3.37622294736 3.37781983756 -90 -0.778831036367 0.466923160051 0.908072180164 149.056597195 -120.943402805 0.629960584349 -2.66503417814e-08 -9.95929441314e-08 1.03097028354e-07 -104.979133516 2.86637671973
0.88255829783 0.021742184052 2.99874357442 -0.774855833372 -2.89690520764 0 -3.36148161612 0 -3.36015755472 3.36148161612 -90 -0.774855833372 0.464576408481 0.903456066521 149.054615239 -120.945384761 0.229384921149 -7.93417043885e-09 -2.96604161649e-08 3.07032819738e-08 -104.974858489 1.03289898164
0.8826074021 0.021660523422 2.98663065148 -0.771545833427 -2.88525181372 0 -3.34787390218 0 -3.34677609952 3.34787390218 -90 -0.771545833427 0.462622088456 0.899612266986 149.052964014 -120.947035986 0.105095218017 -2.99568082739e-09 -1.12018140528e-08 1.15954631877e-08 -104.971282837 0.469254018937
0.88264832232 0.021592472896 2.97654117767 -0.768789366338 -2.87554493502 0 -3.33653933346 0 -3.33562931159 3.33653933346 -90 -0.768789366338 0.460994398443 0.896411169786 149.051588546 -120.948411454 0.0512020945176 -1.20748565885e-09 -4.51617033921e-09 4.67480696358e-09 -104.968294137 0.227031898882
0.8826824225 0.021535764125 2.96813650063 -0.766493611431 -2.86745884592 0 -3.32709746908 0 -3.32634339446 3.32709746908 -90 -0.766493611431 0.459638623157 0.893745030526 149.050442822 -120.949557178 0.0248968640295 -4.87077041926e-10 -1.82206867952e-09 1.88604850495e-09 -104.965797337 0.109757291186
0.88271083932 0.021488506816 2.96113483984 -0.76458138818 -2.86072250695 0 -3.31923175752 0 -3.31860726388 3.31923175752 -90 -0.76458138818 0.458509250573 0.891524251315 149.049488454 -120.950511546 0.0115889363143 -1.88530114287e-10 -7.05363242441e-10 7.30123964705e-10 -104.963712358 0.0508447132395
0.88273452001 0.021449125725 2.95974621617 -0.763794487121 -2.85949544013 0 -3.31762752561 0 -3.31216196995 3.31762752561 -90 -0.763794487121 0.458132085479 0.890655421937 149.044253141 -120.955746859 0.00561358704181 -7.75808820026e-11 -2.90350825723e-10 3.00536872039e-10 -104.955113126 0.0245682436428
0.88275425391 0.021416308149 2.96469048831 -0.764164603959 -2.86451429558 0 -3.32307559269 0 -3.30679192071 3.32307559269 -90 -0.764164603959 0.458561297114 0.891193584556 149.032795982 -120.967204018 0.00263422264206 -3.10244111027e-11 -1.16296762053e-10 1.20363827407e-10 -104.936909528 0.0115766046676
0.88233430806 0.022939790491 3.15911079485 -0.81403118216 -3.05243087532 0 -3.54114218204 0 -3.54837467915 3.54114218204 -90 -0.81403118216 0.488711306726 0.949465906103 149.021102825 -120.978897175 41.0480699562 -4.02267731626e-06 -1.50841204989e-05 1.56112979607e-05 -104.932286653 204.829479415
0.88247720975 0.022693794533 3.13102186321 -0.8073651677 -3.02513767988 0 -3.50969377156 0 -3.50801354989 3.50969377156 -90 -0.8073651677 0.484556091678 0.941612008846 149.029160564 -120.970839436 33.4572208804 -2.95211615173e-06 -1.106305526e-05 1.14501614472e-05 -104.943239257 164.401483311
0.88259629449 0.022488797902 3.10160306036 -0.799959702246 -2.99666549775 0 -3.47671137993 0 -3.47441777116 3.47671137993 -90 -0.799959702246 0.480045882176 0.93294139414 149.032585582 -120.967414418 23.0608758571 -1.73591830521e-06 -6.50203828302e-06 6.72977883695e-06 -104.946652234 111.182050153
0.88269553178 0.022317967376 3.07626674173 -0.793080035028 -2.97227846774 0 -3.44825275351 0 -3.44644802059 3.44825275351 -90 -0.793080035028 0.475974285771 0.924947312355 149.02957033 -120.97042967 10.9078527683 -6.88347845637e-07 -2.57933197509e-06 2.66960251186e-06 -104.940005816 51.800366199
0.88277822952 0.022175608604 3.05517252566 -0.78735122459 -2.95197483725 0 -3.42455897539 0 -3.42315845815 3.42455897539 -90 -0.78735122459 0.47258413814 0.918290686122 149.02700125 -120.97299875 2.95021735308 -1.54822520072e-07 -5.80348346949e-07 6.00644890777e-07 -104.934368081 13.8194580267
0.8828471443 0.022056976294 3.03760750181 -0.782581779022 -2.93506786536 0 -3.40482928717 0 -3.40376338008 3.40482928717 -90 -0.782581779022 0.469761421809 0.912748650076 149.024849414 -120.975150586 0.592613236615 -2.5172277791e-08 -9.43954969875e-08 9.7694192256e-08 -104.929631088 2.73987879675
0.88290457328 0.021958116035 3.02297936732 -0.778610761326 -2.92098748007 0 -3.38839840097 0 -3.38760976653 3.38839840097 -90 -0.778610761326 0.467410920898 0.90813421316 149.023054956 -120.976945044 0.220656061787 -7.66754471059e-09 -2.87623858807e-08 2.97668649065e-08 -104.925662943 1.00965095827
0.88295243077 0.021875732487 3.01079578376 -0.775304067566 -2.90925990736 0 -3.37471331127 0 -3.37415463819 3.37471331127 -90 -0.775304067566 0.465453403909 0.90429161762 149.021559579 -120.978440421 0.101780796617 -2.91522340155e-09 -1.09382844526e-08 1.1320097947e-08 -104.922342418 0.461809767311
0.88299231201 0.021807079529 3.00064733769 -0.772550228414 -2.89949115724 0 -3.36331415548 0 -3.36294634778 3.36331415548 -90 -0.772550228414 0.463822998239 0.901091387961 149.020313724 -120.979686276 0.0497020706167 -1.17790016414e-09 -4.42052846829e-09 4.57477043153e-09 -104.919565862 0.223949722779
0.88302554637 0.021749868731 2.99219345587 -0.770256574151 -2.89135347033 0 -3.35381839343 0 -3.35360910361 3.35381839343 -90 -0.770256574151 0.462464923097 0.898425876001 149.019275853 -120.980724147 0.0241709445469 -4.75248094113e-10 -1.78385081983e-09 1.84607288768e-09 -104.917245504 0.108283147997
0.88305324168 0.021702193067 2.98515074934 -0.768346038781 -2.88457410754 0 -3.34590771522 0 -3.34583014849 3.34590771522 -90 -0.768346038781 0.46133360768 0.896205552197 149.01841127 -120.98158873 0.0112330381366 -1.8367130978e-10 -6.89507203846e-10 7.13551276685e-10 -104.9153073 0.050081484435
0.8830763211 0.021662463346 2.97928335327 -0.766754512179 -2.87892605893 0 -3.33931719088 0 -3.33934913141 3.33931719088 -90 -0.766754512179 0.460391131954 0.894355932891 149.01769104 -120.98230896 0.00478176885498 -6.51786444992e-11 -2.4470959317e-10 2.53241094601e-10 -104.91368894 0.0212339329172
0.88309555395 0.021629355245 2.97853651261 -0.766151225913 -2.87831384723 0 -3.33843441125 0 -3.33394928769 3.33843441125 -90 -0.766151225913 0.460120564022 0.893699439545 149.012644537 -120.987355463 0.00203798729867 -2.36129130533e-11 -8.86752881151e-11 9.17653413288e-11 -104.905491294 0.00903052556214
0.88311158133 0.021601765162 2.98367831374 -0.766583064826 -2.88351984294 0 -3.34410445528 0 -3.32945011517 3.34410445528 -90 -0.766583064826 0.460584612341 0.89430854877 149.001370848 -120.998629152 0.000776245231801 -7.63571938267e-12 -2.87219342108e-11 2.97195847094e-11 -104.887710522 0.00345519804458
0.88270348329 0.023150855677 3.17073044406 -0.815655754919 -3.06402272262 0 -3.55402865319 0 -3.5743677787 3.55402865319 -90 -0.815655754919 0.490005930566 0.951525195214 149.004654598 -120.995345402 40.6423610348 -3.99106041499e-06 -1.49922103431e-05 1.55143476155e-05 -104.906770252 204.287427375
0.88284270261 0.022902633627 3.15576119897 -0.811625135575 -3.04960512024 0 -3.53721724504 0 -3.53378517936 3.53721724504 -90 -0.811625135575 0.4876121248 0.946837377113 149.0032147 -120.9967853 34.9619188768 -3.20445751097e-06 -1.20393649976e-05 1.24585267418e-05 -104.903371282 174.406863846
0.8829587187 0.022695781918 3.12515725374 -0.803380318177 -3.02013013358 0 -3.5028470552 0 -3.50000387202 3.5028470552 -90 -0.803380318177 0.482716921621 0.937248970427 149.000169168 -120.999830832 22.2814757521 -1.68641607587e-06 -6.33897540489e-06 6.55946771714e-06 -104.896283259 109.069131229
0.88305539878 0.022523405494 3.0996812175 -0.796510426 -2.99559559461 0 -3.47423578228 0 -3.47187884276 3.47423578228 -90 -0.796510426 0.478640187677 0.929260650107 148.997470794 -121.002529206 10.2653164002 -6.51817114852e-07 -2.45099875393e-06 2.53619038344e-06 -104.890150646 49.4985707891
0.88313596551 0.022379758474 3.07847016058 -0.790789383897 -2.9751687207 0 -3.45041431798 0 -3.44845941641 3.45041431798 -90 -0.790789383897 0.475245597288 0.922608418078 148.995166989 -121.004833011 2.6613724701 -1.40233014616e-07 -5.27484729577e-07 5.45807194553e-07 -104.884942957 12.6562134623
0.88320310445 0.022260052624 3.06080748468 -0.786026103285 -2.95815883777 0 -3.43057789166 0 -3.42895579613 3.43057789166 -90 -0.786026103285 0.472419053889 0.917069714606 148.993236171 -121.006763829 0.550228787781 -2.34621406492e-08 -8.82858271982e-08 9.13502099326e-08 -104.880564519 2.58271421273
0.88325905357 0.022160297749 3.04609777502 -0.782059978873 -2.94399255616 0 -3.41405782622 0 -3.41271150737 3.41405782622 -90 -0.782059978873 0.470065270061 0.912457796927 148.991625261 -121.008374739 0.209262479929 -7.3038656668e-09 -2.74919276778e-08 2.84456092774e-08 -104.876894668 0.972159856055
0.88330567784 0.022077168686 3.03384607378 -0.778757193175 -2.93219330742 0 -3.40029826073 0 -3.39918066126 3.40029826073 -90 -0.778757193175 0.468104953306 0.908617122101 148.990282324 -121.009717676 0.0970497435697 -2.79268147836e-09 -1.05141519205e-08 1.08787169079e-08 -104.87382236 0.447086255964
0.8833445314 0.022007894467 3.02364076611 -0.776006494654 -2.92236475951 0 -3.38883693098 0 -3.38790916548 3.38883693098 -90 -0.776006494654 0.466472171469 0.905418371195 148.989163118 -121.010836882 0.0474078491971 -1.12891783604e-09 -4.25105247901e-09 4.39839812643e-09 -104.871252433 0.216885501645
0.88337690936 0.021950165951 3.01513943213 -0.773715378695 -2.91417719337 0 -3.37928928096 0 -3.3785191756 3.37928928096 -90 -0.773715378695 0.465112087591 0.902754009062 148.988230504 -121.011769496 0.0229977239023 -4.54396091935e-10 -1.71133491773e-09 1.77063366021e-09 -104.869104146 0.104606404126
0.88340389099 0.021902058855 3.00805713413 -0.771806904929 -2.90735622993 0 -3.37133530917 0 -3.37069621418 3.37133530917 -90 -0.771806904929 0.463979079237 0.900534587595 148.987453424 -121.012546576 0.0106348392888 -1.74760320932e-10 -6.58259451865e-10 6.81062960764e-10 -104.867309278 0.0481412027885
0.88342637569 0.021861969608 3.00215671175 -0.770217060088 -2.90167348968 0 -3.36470866998 0 -3.36417848919 3.36470866998 -90 -0.770217060088 0.463035180301 0.898685682713 148.986805958 -121.013194042 0.00449166576659 -6.1537988119e-11 -2.31814554464e-10 2.39843535674e-10 -104.865810346 0.0202513167568
0.88344511294 0.021828561902 2.99724072968 -0.768892572119 -2.89693884204 0 -3.35918763083 0 -3.35874803067 3.35918763083 -90 -0.768892572119 0.462248788792 0.897145355132 148.986266492 -121.013733508 0.0016376644424 -1.87570169231e-11 -7.0663435778e-11 7.31105174437e-11 -104.864559011 0.00735897309104
0.88346072731 0.021800722147 2.99482213302 -0.76824096896 -2.89460945187 0 -3.35647135323 0 -3.35422332849 3.35647135323 -90 -0.76824096896 0.461861901365 0.896387561345 148.986001077 -121.013998923 0.000736485864988 -7.25987493047e-12 -2.73515831942e-11 2.82986753166e-11 -104.863942724 0.00330147496077
0.88291055614 0.023661514037 3.2450219712 -0.831010989154 -3.13681180971 0 -3.6369607334 0 -3.64912589953 3.6369607334 -90 -0.831010989154 0.5001489237 0.969911444397 148.958116927 -121.041883073 51.9593062413 -6.30941152657e-06 -2.38160949099e-05 2.46376754295e-05 -104.838060215 273.570101384
0.88307310988 0.023361134059 3.21305024378 -0.823424060491 -3.10574680438 0 -3.6011631606 0 -3.60012645552 3.6011631606 -90 -0.823424060491 0.495416356222 0.96097065945 148.96668283 -121.03331717 44.4425494693 -4.82986579033e-06 -1.82194653438e-05 1.88487815162e-05 -104.8492647 229.882423827
0.88320857133 0.023110817411 3.17860516241 -0.814797303771 -3.07239876402 0 -3.56254768271 0 -3.55934613817 3.56254768271 -90 -0.814797303771 0.490148918693 0.95086312468 148.970621367 -121.029378633 34.1976446518 -3.14836437868e-06 -1.18707222732e-05 1.22811349203e-05 -104.852955091 173.081772456
0.88332145587 0.022902220204 3.14784385064 -0.806567092741 -3.04275673631 0 -3.52800600535 0 -3.52539904072 3.52800600535 -90 -0.806567092741 0.485249269033 0.941284971822 148.967946834 -121.032053166 21.5135193859 -1.63656790567e-06 -6.17325919404e-06 6.38650853822e-06 -104.846463978 106.855550468
0.88341552632 0.022728389198 3.12223606294 -0.7997088412 -3.01808250374 0 -3.49925110779 0 -3.49713514343 3.49925110779 -90 -0.7997088412 0.481168604048 0.933304625299 148.965559357 -121.034440643 9.64796484575 -6.16137239303e-07 -2.32492087771e-06 2.40517842438e-06 -104.840832248 47.2084980326
0.88349391836 0.022583530027 3.10091478838 -0.793997127788 -2.99753888098 0 -3.47530945908 0 -3.47359950224 3.47530945908 -90 -0.793997127788 0.477770578103 0.92665863699 148.963515796 -121.036484204 2.39733774115 -1.26760919591e-07 -4.78464955475e-07 4.9497180599e-07 -104.836043886 11.567523828
0.88355924506 0.02246281405 3.08315997003 -0.789241311921 -2.9804314885 0 -3.45537253509 0 -3.4539986954 3.45537253509 -90 -0.789241311921 0.474941046588 0.921124806816 148.961801731 -121.038198269 0.513351874055 -2.19658585232e-08 -8.29407476535e-08 8.58001624473e-08 -104.832015039 2.44504471238
0.88361368397 0.022362217403 3.0683732706 -0.785281163612 -2.96618380516 0 -3.43876848315 0 -3.43767318192 3.43876848315 -90 -0.785281163612 0.472584677996 0.916516691589 148.9603708 -121.0396292 0.19922585154 -6.98154903852e-09 -2.63688345166e-08 2.72774190817e-08 -104.828636 0.939188664609
0.88365904974 0.022278386864 3.05605726955 -0.781983186262 -2.95431662265 0 -3.42493876391 0 -3.42407448477 3.42493876391 -90 -0.781983186262 0.470622141262 0.912679004067 148.959177338 -121.040822662 0.0929172003568 -2.68511323027e-09 -1.01436730874e-08 1.0493043216e-08 -104.825805624 0.434378701899
0.88369685454 0.022208528081 3.04579828001 -0.779236374995 -2.9444313943 0 -3.41341885786 0 -3.41274633295 3.41341885786 -90 -0.779236374995 0.468987463561 0.909482616209 148.958182323 -121.041817677 0.0454320542715 -1.08659911339e-09 -4.10561509657e-09 4.24697257651e-09 -104.82343701 0.210926551302
0.88372835855 0.022150312429 3.03725214323 -0.776948415139 -2.93619654725 0 -3.40382231522 0 -3.40330905072 3.40382231522 -90 -0.776948415139 0.467625767974 0.906820135413 148.95735293 -121.04264707 0.0220021533245 -4.36672037773e-10 -1.65016365276e-09 1.70696310687e-09 -104.821456267 0.10156414277
0.88375461188 0.022101799386 3.03013246187 -0.775042513189 -2.92933614982 0 -3.39582754406 0 -3.39544662443 3.39582754406 -90 -0.775042513189 0.466491394244 0.904602220235 148.956661676 -121.043338324 0.010133485199 -1.67285793206e-10 -6.32240434967e-10 6.53997382997e-10 -104.819800863 0.0465543777971
0.88377648966 0.022061371849 3.0242008538 -0.773454770849 -2.92362052515 0 -3.38916686709 0 -3.38889597405 3.38916686709 -90 -0.773454770849 0.465546341944 0.902754527671 148.956085591 -121.043914409 0.00425050501978 -5.85088710841e-11 -2.21149990338e-10 2.2875885792e-10 -104.818418033 0.0194498856952
0.88379472115 0.022027682236 3.01925886135 -0.772132006545 -2.91885845862 0 -3.38361743707 0 -3.38343805144 3.38361743707 -90 -0.772132006545 0.464758978453 0.901215180376 148.955605509 -121.044394491 0.00153291619069 -1.76428404281e-11 -6.66909992229e-11 6.89852157888e-11 -104.817263363 0.00699129982629
0.88380991405 0.021999607558 3.01892591671 -0.771654531528 -2.91864036084 0 -3.3832002748 0 -3.37889044426 3.3832002748 -90 -0.771654531528 0.464559913965 0.900703437742 148.95078438 -121.04921562 0.000521981534859 -5.09973819886e-12 -1.92806103632e-11 1.99436539439e-11 -104.809548682 0.00237588955826
0.8838225748 0.021976211993 3.02396736272 -0.772070846885 -2.92374506724 0 -3.38875737318 0 -3.37510123104 3.38875737318 -90 -0.772070846885 0.465012305938 0.901293424631 148.939769346 -121.060230654 0.000141013154196 -1.16324793756e-12 -4.40508851375e-12 4.55608939532e-12 -104.7923809 0.000644738835536