TITLE = "Electromagnetic Field"
VARIABLES = X Y E ER EI EvR EvI EvR' EvI' Ev EvPhase EpR EpI Ep EpPhase EpToEvPhaseShift elConductivity Jr Ji J Jphase QJ
ZONE N=297, E=260, F=FEPOINT, ET=QUADRILATERAL
0.55508226307 0.07219455856 78.4382032969 -14.4502891237 -77.0956605827 0 -96.3216451434 0 -104.899142239 96.3216451434 -90 -14.4502891237 19.2259845607 24.0509737451 126.928597992 -143.071402008 1.37055592446e-07 -4.87917416242e-12 -2.60315314061e-11 2.64848441161e-11 -100.615959837 0.000421620811648
0.55512511146 0.072343535831 78.495880539 -14.4420558956 -77.1558803139 0 -96.3750636689 0 -105.031114338 96.3750636689 -90 -14.4420558956 19.219183355 24.040590558 126.922648236 -143.077351764 1.03995595268e-07 -3.57134794068e-12 -1.90690604594e-11 1.94006085799e-11 -100.601966998 0.000320220537637
0.55517439348 0.072472819779 78.6077632076 -14.424663434 -77.2729525839 0 -96.477118135 0 -105.132578516 96.477118135 -90 -14.424663434 19.2041655511 24.0181367814 126.911001111 -143.088998889 5.1437747255e-08 -1.56006817345e-12 -8.35349628097e-12 8.49792421296e-12 -100.573803122 0.000158859535534
0.55522894385 0.072586133658 78.6975098947 -14.407664432 -77.3674157328 0 -96.5556251937 0 -105.209274541 96.5556251937 -90 -14.407664432 19.1882094609 23.9951699289 126.901428621 -143.098571379 2.70824150397e-08 -7.33512712825e-13 -3.93740764112e-12 4.00514923454e-12 -100.549014617 8.38405233858e-05
0.55528778182 0.072686594487 78.7692993559 -14.3909804098 -77.4435407299 0 -96.6150320421 0 -105.266004499 96.6150320421 -90 -14.3909804098 19.1714913122 23.9717833814 126.893533239 -143.106466761 1.50409802469e-08 -3.68098272049e-13 -1.98026778293e-12 2.01418890536e-12 -100.52694496 4.66516532832e-05
0.55535010708 0.072776731758 78.8265538785 -14.3745493366 -77.5048241101 0 -96.6589811759 0 -105.306664822 96.6589811759 -90 -14.3745493366 19.1541570658 23.9480563523 126.886991159 -143.113008841 8.73570675577e-09 -1.95408128002e-13 -1.05332698753e-12 1.07129926109e-12 -100.507063587 2.71358743249e-05
0.5554152783 0.072858550761 78.8720083304 -14.3583230231 -77.5540593207 0 -96.6903837262 0 -105.334348833 96.6903837262 -90 -14.3583230231 19.1363244055 23.9240538548 126.881544675 -143.118455325 5.26578843076e-09 -1.08803905795e-13 -5.87553464435e-13 5.97542777414e-13 -100.48895072 1.63767433249e-05
0.55548278927 0.072933615769 78.907808645 -14.3422649153 -77.5934377469 0 -96.7115246075 0 -105.351474404 96.7115246075 -90 -14.3422649153 19.1180868605 23.8998286364 126.876992254 -143.123007746 3.27364547702e-09 -6.30600671925e-14 -3.4109568336e-13 3.46875827107e-13 -100.472279746 1.01906823246e-05
0.55555224218 0.073003130826 78.9239345662 -14.3340373979 -77.6113575406 0 -96.7199581398 0 -105.359910892 96.7199581398 -90 -14.3340373979 19.1086005992 23.8873030078 126.874861663 -143.125138337 2.51987191519e-09 -4.65966100739e-14 -2.52296409186e-13 2.56563290746e-13 -100.464040261 7.84812526441e-06
0.57043655953 0.070538569656 72.1138883937 -13.4244827111 -70.8531927101 0 -88.3702166345 0 -88.4473306991 88.3702166345 -90 -13.4244827111 17.5170239244 22.0705285819 127.512297091 -142.487702909 7.20968807365e-05 -2.48053195105e-09 -1.29451535056e-08 1.31806692068e-08 -100.738199726 0.159233653475
0.57048999391 0.070700042769 72.1506788972 -13.413298198 -70.8927540786 0 -88.3983901395 0 -88.5718879828 88.3983901395 -90 -13.413298198 17.5056360608 22.0546828046 127.507153755 -142.492846245 6.08589633634e-05 -2.01122879384e-09 -1.05076216364e-08 1.06983720377e-08 -100.723551961 0.134582414804
0.57055020837 0.07084225772 72.2190454949 -13.3897550688 -70.9667838783 0 -88.4478294877 0 -88.670068559 88.4478294877 -90 -13.3897550688 17.4810456094 22.0208366937 127.497297536 -142.502702464 4.10220273247e-05 -1.21548503243e-09 -6.36992885175e-09 6.48485932602e-09 -100.694105575 0.091002816335
0.57061600497 0.070968762879 72.2688710493 -13.3668547704 -71.0218068328 0 -88.4777981585 0 -88.7467057821 88.4777981585 -90 -13.3668547704 17.4559913258 21.9870143089 127.489489573 -142.510510427 2.82640647502e-05 -7.58640152998e-10 -3.9867584876e-09 4.05829755895e-09 -100.66800519 0.0628641840939
0.5706863741 0.071082528533 72.3051702783 -13.3447248373 -71.0629071647 0 -88.4938846985 0 -88.8058452886 88.4938846985 -90 -13.3447248373 17.4309775339 21.9536932363 127.483202097 -142.516797903 1.9852183746e-05 -4.87801181623e-10 -2.56986040588e-09 2.6157470875e-09 -100.644580013 0.0442493812269
0.57076049085 0.071185965038 72.3318440317 -13.3234394109 -71.0940439044 0 -88.5004077911 0 -88.8507713581 88.5004077911 -90 -13.3234394109 17.4063638867 21.9212038968 127.478024153 -142.521975847 1.417490372e-05 -3.22040879455e-10 -1.70045583781e-09 1.73068209238e-09 -100.623293403 0.0316507861837
0.57083769286 0.071280982742 72.3517340031 -13.3030153133 -71.1181079128 0 -88.500473185 0 -88.8840925878 88.500473185 -90 -13.3030153133 17.3823652722 21.8897270143 127.473653847 -142.526346153 1.02624940924e-05 -2.17503548697e-10 -1.15088193329e-09 1.1712544836e-09 -100.603727066 0.0229481264997
0.57091745621 0.071369071594 72.3667788052 -13.2834205924 -71.1370795155 0 -88.4961532971 0 -88.9078492474 88.4961532971 -90 -13.2834205924 17.3590737817 21.8593162095 127.469881587 -142.530118413 7.51741259641e-06 -1.49764422506e-10 -7.93997471796e-10 8.0799838308e-10 -100.585561711 0.0168298509717
0.57099936779 0.071451377793 70.524118229 -12.9672395841 -69.3216327837 0 -86.1632806414 0 -88.9236198532 86.1632806414 -90 -12.9672395841 16.8416478576 21.256208794 127.634537139 -142.365462861 7.13109930242e-06 -1.34382265639e-10 -7.13747136271e-10 7.26287533536e-10 -100.602259193 0.0159801434115
0.57108310514 0.071528776806 66.9620020804 -12.3772111857 -65.8081633681 0 -81.6758483356 0 -88.9326168979 81.6758483356 -90 -12.3772111857 15.8676849675 20.124084649 127.955166826 -142.044833174 8.62996851015e-06 -1.57674988357e-10 -8.38339205595e-10 8.5303811497e-10 -100.651764773 0.0193479998543
0.58622027658 0.068836096727 61.243776005 -11.6242863872 -60.1304021558 0 -74.6898513466 0 -74.6266050937 74.6898513466 -90 -11.6242863872 14.5594491908 18.631660754 128.654641109 -141.345358891 0.00213530024812 -6.95103667402e-08 -3.56408305591e-07 3.63123422153e-07 -100.949244376 3.44528063925
0.58628619598 0.069010260676 61.282527825 -11.6141441351 -60.1718282684 0 -74.7223157387 0 -74.7435370971 74.7223157387 -90 -11.6141441351 14.5504874703 18.618325478 128.647366943 -141.352633057 0.00194511578517 -6.07523570738e-08 -3.11923860022e-07 3.1778512688e-07 -100.932511571 3.14056256275
0.58635903207 0.069165640725 61.3561799422 -11.5929467437 -60.2509247633 0 -74.7821265354 0 -74.8378794431 74.7821265354 -90 -11.5929467437 14.5312017721 18.5900210063 128.633216268 -141.366783732 0.00158646412619 -4.49450471877e-08 -2.31524138178e-07 2.35846354042e-07 -100.898899167 2.56550628656
0.586437599 0.069305599977 61.4143496348 -11.5723243857 -60.3141247334 0 -74.8255451178 0 -74.9136505159 74.8255451178 -90 -11.5723243857 14.5114203844 18.5616891303 128.6213784 -141.3786216 0.0013076400649 -3.39292146979e-08 -1.75302550874e-07 1.78555830474e-07 -100.868690942 2.11764492853
0.5865208958 0.069432953317 61.4608725514 -11.5523480026 -60.3653256482 0 -74.8568455162 0 -74.9742151356 74.8568455162 -90 -11.5523480026 14.491519868 18.5336679971 128.611308282 -141.388691718 0.00108705264271 -2.60791177767e-08 -1.35114045904e-07 1.3760788473e-07 -100.841236885 1.7626877656
0.5866081033 0.069549984954 61.4986866901 -11.5330439444 -60.4075178045 0 -74.8792724947 0 -75.0223062737 74.8792724947 -90 -11.5330439444 14.4717546902 18.5061726871 128.602586267 -141.397413733 0.000909822013094 -2.03583617484e-08 -1.0574384254e-07 1.07685770721e-07 -100.816017244 1.47699570669
0.58669856223 0.069658504738 61.5299204388 -11.5143979008 -60.4428737723 0 -74.8951431976 0 -75.0600956244 74.8951431976 -90 -11.5143979008 14.4522694253 18.4793071255 128.594904355 -141.405095645 0.000765554207332 -1.60993719798e-08 -8.38208538267e-08 8.53529519355e-08 -100.792625874 1.24404840712
0.58679174971 0.069759923967 61.5560387645 -11.4963655755 -60.4728955916 0 -74.9060185005 0 -75.0892829152 74.9060185005 -90 -11.4963655755 14.4331229089 18.4530895731 128.588045837 -141.411954163 0.00064686212439 -1.28662212028e-08 -6.71371489221e-08 6.83588838489e-08 -100.770751146 1.05209643412
0.58688725175 0.069855327652 61.5780049272 -11.4788845011 -60.4985774339 0 -74.9128920744 0 -75.1111841568 74.9128920744 -90 -11.4788845011 14.4143146404 18.4274806052 128.581863371 -141.418136629 0.000548388441382 -1.03694352202e-08 -5.42228860093e-08 5.5205496824e-08 -100.75015632 0.892610644628
0.58698474394 0.069945544374 58.7271180886 -10.9591546641 -57.6954798988 0 -71.2893973736 0 -75.1268114568 71.2893973736 -90 -10.9591546641 13.5939174748 17.4618454974 128.903527646 -141.096472354 0.000573429643079 -2.76390180673e-08 -1.4525288869e-07 1.47859117553e-07 -100.758056412 0.935472482433
0.60216311123 0.067116298668 52.230035898 -10.0702848313 -51.2499852383 0 -63.3327399794 0 -63.1882420073 63.3327399794 -90 -10.0702848313 12.0827547411 15.7299833847 129.861601897 -140.138398103 0.0135023266542 -4.11131821219e-07 -2.08130266938e-06 2.12152173901e-06 -101.122733799 16.5482621752
0.60224362215 0.067303083518 52.2693574796 -10.0610138178 -51.2918756042 0 -63.3676785949 0 -63.297495603 63.3676785949 -90 -10.0610138178 12.0758029907 15.718703851 129.851762276 -140.148237724 0.0126630578847 -3.7052008203e-07 -1.87858029311e-06 1.91477226295e-06 -101.103841817 15.5232932565
0.60233101966 0.067471586243 52.3450200729 -10.0417451738 -51.3727511435 0 -63.4336032713 0 -63.3874825738 63.4336032713 -90 -10.0417451738 12.0608521279 15.6948755556 129.83246219 -140.16753781 0.011051217655 -2.95786690877e-07 -1.50497692727e-06 1.53376903154e-06 -101.065929499 13.552814331
0.60242416488 0.067624978633 52.4075433566 -10.0229709087 -51.4401207462 0 -63.4854790188 0 -63.461518932 63.4854790188 -90 -10.0229709087 12.0453582726 15.6709482944 129.815776456 -140.184223544 0.00972281126971 -2.40195538843e-07 -1.22608382094e-06 1.24939052074e-06 -101.031483129 11.9254059317
0.60252209469 0.067765915087 52.4598778595 -10.0047225735 -51.4969896972 0 -63.5265929596 0 -63.5223823027 63.5265929596 -90 -10.0047225735 12.0296032624 15.6471582572 129.801144374 -140.198855626 0.00861067545079 -1.98046142735e-07 -1.01395703098e-06 1.03311755566e-06 -100.999872751 10.5608389668
0.60262401948 0.067896549534 52.5042741256 -9.98699911927 -51.5456548982 0 -63.5594285142 0 -63.5723297911 63.5594285142 -90 -9.98699911927 12.013773616 15.6236477369 129.788134565 -140.211865435 0.00766655229627 -1.65448921637e-07 -8.4942976429e-07 8.65392821076e-07 -100.97059401 9.40111623247
0.60272930189 0.068018588036 52.5423720381 -9.96977320746 -51.5877951386 0 -63.5857707808 0 -63.6131558063 63.5857707808 -90 -9.96977320746 11.9979756422 15.6004806949 129.776427591 -140.223572409 0.00685553690971 -1.39743967978e-07 -7.19339561561e-07 7.32787879856e-07 -100.943251437 8.4040863298
0.60283743479 0.068133360657 52.5753216357 -9.95300066819 -51.6245926965 0 -63.6068489963 0 -63.6462657992 63.6068489963 -90 -9.95300066819 11.9822562998 15.5776647892 129.765794107 -140.234205893 0.00615211420216 -1.19102161938e-07 -6.1460492057e-07 6.26038916525e-07 -100.91754008 7.53881894061
0.60294801466 0.068241889208 52.6039065479 -9.93662900953 -51.6568576828 0 -63.6234806901 0 -63.6727487623 63.6234806901 -90 -9.93662900953 11.9666230073 15.5551720115 129.756072808 -140.243927192 0.00553728423172 -1.02252677602e-07 -5.28899736839e-07 5.3869348244e-07 -100.893226691 6.78221383779
0.60306072383 0.068344953828 52.7312273188 -9.9142180278 -51.7908031637 0 -63.7432400437 0 -63.6934433413 63.7432400437 -90 -9.9142180278 11.9524368801 15.5299286216 129.725480163 -140.274519837 0.00432520690976 -2.11794573685e-07 -1.10180437413e-06 1.1219760588e-06 -100.84152002 5.30491044811
0.61793123218 0.065185293022 41.4236359079 -8.16443810065 -40.6110768428 0 -49.7582498283 0 -53.6906231557 49.7582498283 -90 -8.16443810065 9.14717298547 12.2608655129 131.750955508 -138.249044492 0.0790976396133 -2.37585171164e-06 -1.18178244772e-05 1.20542791875e-05 -101.367199437 67.8625164334
0.61802055488 0.065405564958 43.5989391197 -8.53750704715 -42.7548297987 0 -52.4768764751 0 -53.8119228384 52.4768764751 -90 -8.53750704715 9.7220466764 12.9393214887 131.334611209 -138.665388791 0.0584412546106 -1.69679633582e-06 -8.47101279612e-06 8.63928484584e-06 -101.297457184 52.394141048
0.61811782383 0.065604674218 44.8532539084 -8.73740108371 -43.9939751841 0 -54.0318974282 0 -53.9136698476 54.0318974282 -90 -8.73740108371 10.037922244 13.3087616075 131.089161941 -138.910838059 0.0445023702752 -1.20438333539e-06 -6.04534092271e-06 6.16414803344e-06 -101.237405433 41.5619500859
0.61822182799 0.065786018962 44.9285002422 -8.7196816873 -44.0742001581 0 -54.1006092103 0 -53.9989792263 54.1006092103 -90 -8.7196816873 10.0264090522 13.2884365507 131.063914028 -138.936085972 0.0398832808576 -9.95120886319e-07 -5.01460669662e-06 5.11239351411e-06 -101.195142641 37.3328011884
0.61833150013 0.065952577704 44.992454868 -8.70238066438 -44.1428088542 0 -54.1571262795 0 -54.0705793379 54.1571262795 -90 -8.70238066438 10.0143174253 13.2679522427 131.041603648 -138.958396352 0.0359974525198 -8.34809377791e-07 -4.22200544969e-06 4.30374841815e-06 -101.156406997 33.7557859631
0.61844593576 0.066106842684 45.0474143858 -8.68550465822 -44.2021460826 0 -54.2040081675 0 -54.1307561959 54.2040081675 -90 -8.68550465822 10.0018620849 13.2474743273 131.02165538 -138.97834462 0.0326786481325 -7.09810083142e-07 -3.60190843175e-06 3.67118287585e-06 -101.120588076 30.6866720859
0.61856439169 0.066250836145 45.095135693 -8.66903852647 -44.2540093891 0 -54.2431953376 0 -54.1813682955 54.2431953376 -90 -8.66903852647 9.98918594845 13.2271002157 131.003624183 -138.996375817 0.0298066133953 -6.10537683389e-07 -3.10791538343e-06 3.16731753061e-06 -101.08719625 28.0202134139
0.61868626589 0.066386159225 45.1369137607 -8.65295142054 -44.2997275752 0 -54.2761015203 0 -54.2238938425 54.2761015203 -90 -8.65295142054 9.97637394507 13.2068734108 130.987176268 -139.012823732 0.0272934879866 -5.30251369956e-07 -2.70723859158e-06 2.7586792945e-06 -101.055846289 25.6789607863
0.61881107756 0.06651405983 45.1736760605 -8.63720407629 -44.340255828 0 -54.3037251204 0 -54.2594914675 54.3037251204 -90 -8.63720407629 9.96346929237 13.1868005148 130.972067104 -139.027932896 0.0250743908843 -4.64197879494e-07 -2.37667082437e-06 2.42157939453e-06 -101.026239879 23.6053886257
0.61893844177 0.066635495837 45.2060751448 -8.62175443115 -44.376269201 0 -54.3267569118 0 -54.2890596593 54.3267569118 -90 -8.62175443115 9.95048771085 13.1668656043 130.958119814 -139.041880186 0.0231005983182 -4.0900252813e-07 -2.09968840271e-06 2.13915321854e-06 -100.998147573 21.756080426
0.61906805382 0.066751198348 45.3403385699 -8.6011194976 -44.5170267046 0 -54.4581484967 0 -54.3132913764 54.4581484967 -90 -8.6011194976 9.94112179211 13.1462637184 130.916407022 -139.083592978 0.0190774608478 -9.11657601968e-07 -4.71085331489e-06 4.79825672004e-06 -100.938348913 18.0260856087
0.6333754333 0.063239888535 35.8161685016 -7.15120503139 -35.0949881427 0 -42.751285579 0 -45.9234017837 42.751285579 -90 -7.15120503139 7.65629743634 10.476575005 133.046365557 -136.953634443 0.236685583369 -6.93790051526e-06 -3.40481828236e-05 3.47478519789e-05 -101.517320444 151.809887746
0.63347513139 0.063495081533 37.6401533826 -7.46927723707 -36.8915891222 0 -45.0221625245 0 -46.054041377 45.0221625245 -90 -7.46927723707 8.13057340223 11.041289509 132.617370892 -137.382629108 0.176490313388 -5.02745739213e-06 -2.47714027429e-05 2.52764368266e-05 -101.449608342 118.932246195
0.63358362452 0.063726460366 38.6883168797 -7.63629009537 -37.9271901763 0 -46.3152950792 0 -46.1652980775 46.3152950792 -90 -7.63629009537 8.38810490283 11.3440869873 132.362986825 -137.637013175 0.13554911272 -3.62356621198e-06 -1.79599168613e-05 1.83218198112e-05 -101.386907752 95.5659951526
0.63369973303 0.063937418138 38.7736076415 -7.61946797546 -38.0175657667 0 -46.3976610763 0 -46.2599139494 46.3976610763 -90 -7.61946797546 8.38009530958 11.3268336344 132.327100793 -137.672899207 0.120735085069 -2.97593048449e-06 -1.48194954362e-05 1.51153481012e-05 -101.336017399 85.5296824207
0.63382234628 0.064131134032 38.8468421908 -7.60299037219 -38.0955476514 0 -46.4668120201 0 -46.3404529491 46.4668120201 -90 -7.60299037219 8.3712643687 11.309208648 132.295207119 -137.704792881 0.108620929936 -2.4863841117e-06 -1.24352946574e-05 1.26814331471e-05 -101.289427318 77.2569304428
0.63395048409 0.064310394907 38.9102730024 -7.58686682502 -38.1634375381 0 -46.5252773994 0 -46.4091613739 46.5252773994 -90 -7.58686682502 8.36183986123 11.2913857706 132.266579542 -137.733420458 0.0985097785624 -2.1093636882e-06 -1.059201555e-05 1.08000122512e-05 -101.246423301 70.3033893821
0.63408331354 0.06447753214 38.9657135269 -7.57108939746 -38.2230911258 0 -46.5750804538 0 -46.4679217611 46.5750804538 -90 -7.57108939746 8.35198932793 11.2734828023 132.240629593 -137.759370407 0.0899213821645 -1.81336819055e-06 -9.13981049253e-06 9.31796527778e-06 -101.206414166 64.3601772108
0.63422014851 0.064634437298 39.0145603265 -7.55563669062 -38.2759403895 0 -46.6177671984 0 -46.5182652755 46.6177671984 -90 -7.55563669062 8.34182680894 11.255569158 132.216898571 -137.783101429 0.0825182984048 -1.57650249183e-06 -7.97393936625e-06 8.1282897309e-06 -101.168924831 59.208598278
0.63436043081 0.064782607343 39.0578564619 -7.54047876492 -38.3230576274 0 -46.6544816978 0 -46.5614103288 46.6544816978 -90 -7.54047876492 8.33142407037 11.237677393 132.195037949 -137.804962051 0.0760585276468 -1.38343284116e-06 -7.02070691137e-06 7.15571303079e-06 -101.133580363 54.6907564292
0.63450371259 0.064923208579 39.0963636569 -7.52558235084 -38.3652282954 0 -46.6860510202 0 -46.5983126948 46.6860510202 -90 -7.52558235084 8.32082272481 11.219815616 132.174787974 -137.825212026 0.070365618064 -1.22334904901e-06 -6.22796614578e-06 6.34698015147e-06 -101.100089384 50.6908820748
0.63464963272 0.065057135338 39.1306318512 -7.51091430095 -38.4030214406 0 -46.7130657213 0 -46.6297141628 46.7130657213 -90 -7.51091430095 8.3100442807 11.2019772085 132.15595672 -137.84404328 0.0653083455549 -1.08856097985e-06 -5.55851686035e-06 5.66410478502e-06 -101.068226713 47.1224772185
0.63479790354 0.065185069942 39.2675500926 -7.49173522699 -38.5462549208 0 -46.8507405566 0 -46.656187743 46.8507405566 -90 -7.49173522699 8.30448563581 11.1849850729 132.101648126 -137.898351874 0.0549770398106 -2.49797709615e-06 -1.2849791794e-05 1.30903430433e-05 -101.000402928 39.9179510768
0.64843292609 0.061590554435 33.5697046156 -6.72061291007 -32.8900904108 0 -39.9457989245 0 -39.7179982449 39.9457989245 -90 -6.72061291007 7.05570851373 9.74475202919 133.65200875 -136.34799125 0.476451007053 -1.2720460508e-05 -6.21567897048e-05 6.34450763557e-05 -101.550821197 251.614168083
0.64855421957 0.061855297631 33.6174710999 -6.7128443388 -32.9404217344 0 -39.993994282 0 -39.836762774 39.993994282 -90 -6.7128443388 7.05357254755 9.73784562453 133.627437649 -136.372562351 0.43855135115 -1.1314097227e-05 -5.54170553157e-05 5.65602389683e-05 -101.520653958 232.540311415
0.64868380827 0.062097187074 33.7106570986 -6.69677036119 -33.0387812688 0 -40.0873629588 0 -39.9390146045 40.0873629588 -90 -6.69677036119 7.04858169008 9.72314487803 133.578849162 -136.421150838 0.369861201895 -8.8154041984e-06 -4.34203781912e-05 4.43062247431e-05 -101.46035026 197.829303264
0.64882062975 0.062319387476 33.7913483935 -6.68099521169 -33.1242964078 0 -40.1668936609 0 -40.027018218 40.1668936609 -90 -6.68099521169 7.04259725317 9.70793620106 133.535439465 -136.464560535 0.319211808981 -7.06825367948e-06 -3.4993509942e-05 3.57002308499e-05 -101.405181611 171.980880574
0.64896368225 0.062524864343 33.8616523286 -6.66552714643 -33.1991235053 0 -40.2349670392 0 -40.1028911594 40.2349670392 -90 -6.66552714643 7.03584353392 9.6923860596 133.496348866 -136.503651134 0.280425915568 -5.80556153048e-06 -2.88783370438e-05 2.94561234464e-05 -101.354346129 152.008180862
0.64911208029 0.062716217427 33.9233670513 -6.6503616779 -33.2651039163 0 -40.2936041969 0 -40.1684890022 40.2936041969 -90 -6.6503616779 7.02850028064 9.6766204007 133.460842748 -136.539157252 0.249737295612 -4.86484071607e-06 -2.43055609727e-05 2.47876412902e-05 -101.307153463 136.076083051
0.649265069 0.062895620983 33.9779458499 -6.63548303686 -33.3237278683 0 -40.3444291982 0 -40.2253671274 40.3444291982 -90 -6.63548303686 7.02070132998 9.6607245042 133.42832277 -136.57167723 0.224780228239 -4.14428357914e-06 -2.07909891862e-05 2.12000103423e-05 -101.263031514 123.023852166
0.64942202466 0.063064838866 34.0265170461 -6.62086787908 -33.3761544616 0 -40.3886949752 0 -40.274791177 40.3886949752 -90 -6.62086787908 7.01254051362 9.64474968914 133.39831867 -136.60168133 0.204023383763 -3.57836724137e-06 -1.80217645801e-05 1.83735894435e-05 -101.22151972 112.095479681
0.64958243724 0.063225266189 34.069934085 -6.60648889812 -33.4232623858 0 -40.4273426431 0 -40.3177687417 40.4273426431 -90 -6.60648889812 7.00408025739 9.6287219454 133.370469007 -136.629530993 0.186443586712 -3.12381776649e-06 -1.57905545956e-05 1.60965805003e-05 -101.182253604 102.782998889
0.64974589532 0.06337798941 34.1088305338 -6.59231839249 -33.4657055578 0 -40.4610660194 0 -40.3550908758 40.4610660194 -90 -6.59231839249 6.99536046165 9.61265076773 133.344500719 -136.655499281 0.171335595401 -2.75139742452e-06 -1.3956873003e-05 1.42254886324e-05 -101.144949011 94.7345935108
0.64991206426 0.063523840651 34.1436729941 -6.57833022582 -33.5039668787 0 -40.4903725159 0 -40.3873720847 40.4903725159 -90 -6.57833022582 6.98640563729 9.59653564077 133.320208876 -136.679791124 0.158199176958 -2.44094350422e-06 -1.24236193165e-05 1.26611431579e-05 -101.109385373 87.6996658176
0.6500806756 0.063663454424 34.2805374724 -6.56038393216 -33.6469348271 0 -40.6307746134 0 -40.4150878593 40.6307746134 -90 -6.56038393216 6.98383978627 9.5823604456 133.252068535 -136.747931465 0.132082754145 -5.5789634418e-06 -2.86283677323e-05 2.91669062705e-05 -101.033706123 73.870051189
0.66289717604 0.060006103335 29.4925660756 -5.93382424147 -28.8894622143 0 -34.8677808224 0 -34.6603282023 34.8677808224 -90 -5.93382424147 5.97831860803 8.42363394195 134.826329609 -135.173670391 1.90881298427 -4.44162180977e-05 -0.000215943411527 0.000220463972659 -101.608505841 768.237139425
0.66304167433 0.060279755559 29.536960266 -5.92646300409 -28.9362854549 0 -34.9131308165 0 -34.7687853747 34.9131308165 -90 -5.92646300409 5.97684536163 8.41740176335 134.797691073 -135.202308927 1.70607282173 -3.85109888051e-05 -0.000187693067804 0.000191603238031 -101.57623503 689.304008267
0.66319394995 0.060531486225 29.6236960926 -5.91128652352 -29.0279122336 0 -35.0012180862 0 -34.8630680451 35.0012180862 -90 -5.91128652352 5.97330585261 8.40420019515 134.740971732 -135.259028268 1.34114131946 -2.81616344994e-05 -0.000138071879064 0.0001409146168 -101.511782493 546.837550718
0.66335305919 0.060764240187 29.6996871171 -5.89638664213 -29.1084819885 0 -35.0773540442 0 -34.9450563534 35.0773540442 -90 -5.89638664213 5.96887205573 8.39056519359 134.689716478 -135.310283522 1.07738042356 -2.11597540644e-05 -0.000104316119811 0.000106440555461 -101.452463962 443.158996302
0.66351811086 0.060980777123 29.7666342568 -5.88176042391 -29.1797385412 0 -35.1434613316 0 -35.0165083842 35.1434613316 -90 -5.88176042391 5.96372279043 8.37661982931 134.643070862 -135.356929138 0.884793064585 -1.63486663402e-05 -8.10120852912e-05 8.26452589284e-05 -101.397507613 366.927186777
0.66368831574 0.061183516439 29.8259916369 -5.86739584776 -29.243173817 0 -35.2011760759 0 -35.0789649778 35.2011760759 -90 -5.86739584776 5.9580022589 8.36245673383 134.600300871 -135.399699129 0.741892708996 -1.29699402869e-05 -6.45784713812e-05 6.5868045319e-05 -101.34624806 309.967800531
0.66386299842 0.061374480867 29.8789405781 -5.85327387046 -29.3000013649 0 -35.2518209733 0 -35.1337179001 35.2518209733 -90 -5.85327387046 5.95181960835 8.3481390802 134.56080453 -135.43919547 0.633769368766 -1.05363617281e-05 -5.26985187035e-05 5.374150548e-05 -101.29813286 266.573565059
0.66404159886 0.06155531104 29.9264057775 -5.83937164437 -29.3511726183 0 -35.2964262863 0 -35.1818187601 35.2964262863 -90 -5.83937164437 5.945253668 8.33370608775 134.524104779 -135.475895221 0.550238385128 -8.73668529759e-06 -4.38838780028e-05 4.47451091232e-05 -101.252716344 232.82374572
0.66422365622 0.061727303733 29.9690945254 -5.82566507172 -29.3974166999 0 -35.3357760783 0 -35.2241051636 35.3357760783 -90 -5.82566507172 5.93835937841 8.31917929802 134.489831275 -135.510168725 0.484357972974 -7.37078593787e-06 -3.71731442644e-05 3.78968517408e-05 -101.209644795 206.031979484
0.66440879648 0.061891468265 30.0075388728 -5.81213120897 -29.4392831865 0 -35.3704574813 0 -35.2612352769 35.3704574813 -90 -5.81213120897 5.93117429481 8.30456882633 134.457701247 -135.542298753 0.431375881891 -6.30847181395e-06 -3.19385108081e-05 3.25555746218e-05 -101.168641549 184.350315443
0.66459671225 0.062048576601 30.0421366052 -5.7987492703 -29.4771838701 0 -35.4009076097 0 -35.2937208818 35.4009076097 -90 -5.7987492703 5.92372373959 8.2898776897 134.427499999 -135.572500001 0.387997938827 -5.46356667987e-06 -2.7763128688e-05 2.82956175919e-05 -101.129490886 166.492094721
0.66478715495 0.062199216973 30.1773198598 -5.78186990611 -29.6182424584 0 -35.54173119 0 -35.3219587101 35.54173119 -90 -5.78186990611 5.9234887316 8.27790162778 134.344622218 -135.655377782 0.308875672626 -1.18702906314e-05 -6.08624272672e-05 6.20091893973e-05 -101.046180434 134.13771237
0.6766809664 0.058496111331 26.1327587176 -5.27748470613 -25.5943188307 0 -30.7095817097 0 -30.5243156558 30.7095817097 -90 -5.27748470613 5.11526287895 7.34999337467 135.929193431 -134.070806569 6.73720584441 -0.000138211799481 -0.000669660731748 0.00068377484433 -101.652078261 2162.85444327
0.67684986875 0.058778006122 26.1740701955 -5.27050168084 -25.6379295359 0 -30.7522239369 0 -30.6238842389 30.7522239369 -90 -5.27050168084 5.11429440102 7.34430524416 135.89657277 -134.10342723 6.15541816352 -0.000122474656885 -0.000594973232279 0.000607448233679 -101.617833697 1978.68247986
0.67702604355 0.059038873957 26.2548606264 -5.25614099118 -25.723343626 0 -30.8352030258 0 -30.7111798599 30.8352030258 -90 -5.25614099118 5.11185939983 7.33230303658 135.831868391 -134.168131609 5.05294637379 -9.37699181826e-05 -0.000458331959332 0.000467825893673 -101.549482175 1629.51388103
0.67720866216 0.059281450249 26.3263080791 -5.24202071986 -25.7991371328 0 -30.9077529888 0 -30.7877737914 30.9077529888 -90 -5.24202071986 5.10861585608 7.31991808323 135.77279963 -134.22720037 4.15074547619 -7.22476086232e-05 -0.000355166987173 0.000362440821255 -101.486230206 1343.43062817
0.6773969406 0.059508298459 26.3898016032 -5.22813574221 -25.8667358004 0 -30.9714447478 0 -30.855135163 30.9714447478 -90 -5.22813574221 5.10470894731 7.30724589251 135.718544416 -134.281455584 3.41978016274 -5.61595069046e-05 -0.000277571071437 0.000283195361226 -101.427345929 1111.28602003
0.67759018315 0.059721665967 26.4465323208 -5.21447339505 -25.9273632141 0 -31.0276199674 0 -30.9145517265 31.0276199674 -90 -5.21447339505 5.10025675334 7.29435821214 135.668389753 -134.331610247 2.82821788225 -4.40657935773e-05 -0.0002189078209 0.000223298993463 -101.372195877 923.057259662
0.67778779159 0.059923430898 26.49747324 -5.20101599541 -25.9820200993 0 -31.0773702645 0 -30.9671032279 31.0773702645 -90 -5.20101599541 5.09535016528 7.28130462626 135.621745458 -134.378254542 2.34772075264 -3.48773955544e-05 -0.000174099598704 0.000177558750234 -101.320252135 769.831423891
0.67798926783 0.060115116207 26.5433917398 -5.18774378178 -26.0314968163 0 -31.1215533792 0 -31.013669077 31.1215533792 -90 -5.18774378178 5.09005656289 7.26811711009 135.578139614 -134.421860386 1.95920642784 -2.78661655203e-05 -0.000139740933144 0.00014249229958 -101.271087371 645.59915604
0.67819419897 0.060297924708 26.5848803483 -5.17463683751 -26.0764046499 0 -31.1608292746 0 -31.0549500762 31.1608292746 -90 -5.17463683751 5.08442462475 7.25481467584 135.537202374 -134.462797626 1.64631177528 -2.24921275783e-05 -0.000113286737201 0.000115497977841 -101.224361059 545.228707994
0.67840224742 0.060472791949 26.6223894701 -5.16167683178 -26.1172090562 0 -31.1956982246 0 -31.0914974208 31.1956982246 -90 -5.16167683178 5.07848916843 7.24140793426 135.498648747 -134.501351253 1.39499239829 -1.83521075335e-05 -9.28227516843e-05 9.46195774568e-05 -101.179805736 464.324383033
0.67861313243 0.060640432323 26.6562597293 -5.14884751785 -26.1542627072 0 -31.2265376807 0 -31.1237401573 31.2265376807 -90 -5.14884751785 5.07227497346 7.22790207716 135.46226026 -134.53773974 1.19327136376 -1.5143028644e-05 -7.68999073397e-05 7.83767051267e-05 -101.137211712 399.136958639
0.67882662494 0.060801389712 26.7888573646 -5.13290425965 -26.2925059195 0 -31.3663379701 0 -31.1520115376 31.3663379701 -90 -5.13290425965 5.07383205066 7.2176406375 135.364135188 -134.635864812 0.851965269093 -2.90426073633e-05 -0.000148927622622 0.000151733039811 -101.046508369 289.248119544
0.68973199645 0.057066327547 23.3497623258 -4.73000957619 -22.8656590152 0 -27.2889991571 0 -27.1254507633 27.2889991571 -90 -4.73000957619 4.42334014194 6.47626093682 136.948471475 -133.051528525 15.0306194556 -0.000274414380683 -0.00132596703316 0.00135406498304 -101.68832822 3971.97626338
0.689926089 0.057355801313 23.3883042444 -4.72342604827 -22.906369169 0 -27.3291331031 0 -27.2173829663 27.3291331031 -90 -4.72342604827 4.42276393409 6.47105987931 136.912269035 -133.087730965 14.162171769 -0.00025087445891 -0.00121568530911 0.00124130154132 -101.652354719 3747.39811172