TITLE = "Electromagnetic Field"
VARIABLES = X Y E ER EI EvR EvI EvR' EvI' Ev EvPhase EpR EpI Ep EpPhase EpToEvPhaseShift elConductivity Jr Ji J Jphase QJ
ZONE N=263, E=230, F=FEPOINT, ET=QUADRILATERAL
0.22360733149 0.08 1148.59903268 -113.801494645 -1142.94748684 0 -1347.30333165 0 -1355.74536186 1347.30333165 -90 -113.801494645 204.355844805 233.90615958 119.112518868 -150.887481132 2.96968602228e-96 -3.07047142944e-101 -3.08377988764e-100 3.09902829019e-100 -95.686110164 1.9589232985e-90
0.21452187904 0.08 1140.40558769 -112.943944243 -1134.79891071 0 -1336.26193805 0 -1336.66873493 1336.26193805 -90 -112.943944243 201.463027338 230.96348275 119.277913377 -150.722086623 2.96961676239e-96 -3.04726337966e-101 -3.06172336536e-100 3.07685035753e-100 -95.6837832351 1.93113060418e-90
0.2054364266 0.08 1125.8650665 -111.092076513 -1120.37072512 0 -1315.71623021 0 -1314.86003576 1315.71623021 -90 -111.092076513 195.345505085 224.726163452 119.629416078 -150.370583922 2.96971595623e-96 -2.99739746782e-101 -3.02289516696e-100 3.03771955618e-100 -95.6626344172 1.88222323104e-90
0.19635097415 0.08 1117.10569972 -108.967020855 -1111.77809081 0 -1300.38170664 0 -1299.77101485 1300.38170664 -90 -108.967020855 188.603615831 217.820441649 120.020870433 -149.979129567 2.97027753535e-96 -2.94061434458e-101 -3.00027858526e-100 3.0146558032e-100 -95.597665916 1.85334959387e-90
0.1872655217 0.08 1112.3173832 -106.569353222 -1107.20000171 0 -1288.51853211 0 -1289.50689717 1288.51853211 -90 -106.569353222 181.318530397 210.319053334 120.448857399 -149.551142601 2.97127356918e-96 -2.87687161929e-101 -2.98892554666e-100 3.00274004384e-100 -95.4977377403 1.83811084748e-90
0.17818006925 0.08 1101.16270039 -103.902393694 -1096.24963194 0 -1269.82750098 0 -1272.14208083 1269.82750098 -90 -103.902393694 173.577869039 202.300985041 120.909270229 -149.090729771 2.97267496003e-96 -2.80619576912e-101 -2.96075533697e-100 2.97402453219e-100 -95.4140741021 1.80237914915e-90
0.16909461681 0.08 1075.79770303 -100.976332452 -1071.04830758 0 -1236.52588262 0 -1238.12895161 1236.52588262 -90 -100.976332452 165.477575038 193.855012561 121.397606789 -148.602393211 2.97445540546e-96 -2.72879837382e-101 -2.89441546568e-100 2.90725029893e-100 -95.3858396987 1.72162077193e-90
0.16000916436 0.08 1039.8948386 -97.8090839761 -1035.28480493 0 -1192.40605849 0 -1192.43047226 1192.40605849 -90 -97.8090839761 157.121253568 185.07947961 121.90883145 -148.09116855 2.97659390401e-96 -2.64510251156e-101 -2.79977318949e-100 2.81224035482e-100 -95.3972106857 1.60994854997e-90
0.15092371191 0.08 1002.87114536 -94.4255217846 -998.41592001 0 -1147.03433075 0 -1146.57256831 1147.03433075 -90 -94.4255217846 148.61841074 176.080340654 122.436958908 -147.563041092 2.97907639722e-96 -2.55572444415e-101 -2.70231695374e-100 2.71437547782e-100 -95.4026216053 1.49854732811e-90
0.14183825947 0.08 967.733393228 -90.857076311 -963.45880855 0 -1103.5411702 0 -1104.18708335 1103.5411702 -90 -90.857076311 140.082361648 166.969148125 122.974740713 -147.025259287 2.98189570811e-96 -2.46146347392e-101 -2.61016671757e-100 2.6217472388e-100 -95.3870299774 1.39671227162e-90
0.13275280702 0.08 926.811442488 -87.1420962144 -922.705587771 0 -1054.3330385 0 -1056.8215108 1054.3330385 -90 -87.1420962144 131.627450733 157.860945664 123.513713363 -146.486286637 2.98505078294e-96 -2.36331192287e-101 -2.50239174407e-100 2.51352693102e-100 -95.3956255098 1.28283610238e-90
0.12366735457 0.08 868.680417116 -83.3259979307 -864.673624253 0 -988.038866034 0 -990.947426595 988.038866034 -90 -83.3259979307 123.365241781 148.871315201 124.04456141 -145.95543859 5.51688863128e-96 -4.13228225198e-101 -4.2544697317e-100 4.2744952124e-100 -95.5081181551 2.0087125826e-90
0.11458190213 0.08 790.722203038 -79.4603010768 -786.715803224 0 -902.115888162 0 -903.487167942 902.115888162 -90 -79.4603010768 115.400084938 140.11243693 124.557597253 -145.442402747 7.00794009457e-96 -5.0775627316e-101 -5.04996374579e-100 5.07544919207e-100 -95.7771237123 2.23299611702e-90
0.10549644968 0.08 747.403646492 -77.5218231561 -743.372435408 0 -854.876655682 0 -805.563071134 854.876655682 -90 -77.5218231561 111.504220274 135.804360034 124.808443224 -145.191556776 5.96881542946e-96 -4.20396108587e-101 -4.03126327986e-100 4.05312429116e-100 -95.9535113882 1.66712659142e-90
0.087325544786 0.077664969066 554.848654878 -71.9087722602 -550.169208782 0 -649.802701236 0 -607.92969194 649.802701236 -90 -71.9087722602 99.6334924538 122.872716038 125.819224392 -144.180775608 2.26516718963e-96 -5.45861732628e-100 -4.17635162033e-99 4.21187344157e-99 -97.4465187259 3.48673821524e-91
0.087325544786 0.078033822604 556.230155073 -71.7459886931 -551.583513382 0 -651.024561117 0 -610.270545002 651.024561117 -90 -71.7459886931 99.4410477352 122.62140625 125.81015304 -144.18984696 2.26476467358e-96 -5.27747367973e-100 -4.05665276965e-99 4.09083802995e-99 -97.4111054799 3.50351997727e-91
0.087325544786 0.078379102643 558.943861106 -71.4267228268 -554.361217169 0 -653.42469461 0 -612.449578963 653.42469461 -90 -71.4267228268 99.0634774407 122.128414507 125.792331264 -144.207668736 3.99566624534e-96 -8.31873376153e-100 -6.46849873674e-99 6.52177135242e-99 -97.3419081514 6.25493769239e-91
0.087325544786 0.078689931403 561.390132538 -71.1398162649 -556.864371018 0 -655.588305603 0 -614.400918967 655.588305603 -90 -71.1398162649 98.723934585 121.685204422 125.776259817 -144.223740183 1.52557441861e-95 -2.74369124884e-99 -2.15292672018e-98 2.17033931211e-98 -97.2802015755 2.41046338458e-90
0.087325544786 0.078960057578 563.522058578 -70.8904418733 -559.04525611 0 -657.473878649 0 -616.088705916 657.473878649 -90 -70.8904418733 98.4286225395 121.299829637 125.762247288 -144.237752712 2.59964577124e-95 -4.19829015752e-99 -3.30983772266e-98 3.33635791262e-98 -97.2269352105 4.12769065923e-90
0.087325544786 0.079187714856 565.32529447 -70.6799793368 -560.889463237 0 -659.068717297 0 -617.505266612 659.068717297 -90 -70.6799793368 98.1792540593 120.974482987 125.75038944 -144.24961056 2.59920191367e-95 -3.49395686529e-99 -2.7719144255e-98 2.79384821644e-98 -97.182247579 4.15343777671e-90
0.087325544786 0.079374668832 566.811823061 -70.5067894647 -562.409468177 0 -660.383422504 0 -618.664494159 660.383422504 -90 -70.5067894647 97.9739543273 120.706682377 125.74060955 -144.25939045 2.59916000564e-95 -2.84101038123e-99 -2.26562803239e-98 2.28337123145e-98 -97.1456581354 4.1752399004e-90
0.087325544786 0.079524954772 567.545940015 -70.4213404684 -563.160038386 0 -661.032676177 0 -619.593676233 661.032676177 -90 -70.4213404684 97.872637791 120.574534714 125.735778424 -144.264221576 2.59923862564e-95 -2.49928251843e-99 -1.99867828368e-98 2.01424403008e-98 -97.1276544977 4.18618289701e-90
0.096410997233 0.077664969066 595.12448604 -73.8599833044 -590.515351906 0 -693.704159181 0 -691.280338898 693.704159181 -90 -73.8599833044 103.188807274 126.899410175 125.601068021 -144.398931979 1.90993018526e-96 -4.70422430638e-100 -3.7315983231e-99 3.76118306922e-99 -97.1494724275 3.31257365123e-91
0.096410997233 0.078033822604 596.681327294 -73.6909923082 -592.105232905 0 -695.091229322 0 -694.222319011 695.091229322 -90 -73.6909923082 102.985996418 126.63613184 125.592268509 -144.407731491 2.30063403794e-96 -5.47356818962e-100 -4.4033619417e-99 4.43731337311e-99 -97.1145233425 4.12757558132e-91
0.096410997233 0.078379102643 599.741051336 -73.3595662091 -595.229410802 0 -697.817518632 0 -696.966100946 697.817518632 -90 -73.3595662091 102.58810783 126.119684519 125.574981636 -144.425018364 4.74623517819e-96 -1.01946024759e-99 -8.3428751461e-99 8.40503821858e-99 -97.0462305292 8.77857183136e-91
0.096410997233 0.078689931403 602.50221346 -73.0617583623 -598.04785516 0 -700.278184643 0 -699.427472686 700.278184643 -90 -73.0617583623 102.230329483 125.65542979 125.559394116 -144.440605884 1.08794170684e-95 -2.03055825399e-99 -1.63724818618e-98 1.64980999268e-98 -96.985325988 1.87790676305e-90
0.096410997233 0.078960057578 604.910912396 -72.8029290558 -600.505852989 0 -702.425038403 0 -701.559720655 702.425038403 -90 -72.8029290558 101.919185414 125.251789103 125.545804723 -144.454195277 1.53425129939e-95 -2.49816201698e-99 -1.99765594269e-98 2.01323094094e-98 -96.932748386 2.55345464257e-90
0.096410997233 0.079187714856 606.949986624 -72.584501594 -602.586179743 0 -704.242648008 0 -703.351717558 704.242648008 -90 -72.584501594 101.656468264 124.911045307 125.534305825 -144.465694175 1.53399975389e-95 -2.07904805674e-99 -1.67309335761e-98 1.68597406493e-98 -96.8886359719 2.56971832408e-90
0.096410997233 0.079374668832 608.632149041 -72.4047674267 -604.302046208 0 -705.742238975 0 -704.819823763 705.742238975 -90 -72.4047674267 101.440192767 124.630587093 125.524822589 -144.475177411 1.53398201917e-95 -1.690512549e-99 -1.3675728068e-98 1.37799205568e-98 -96.8525156905 2.58348470601e-90
0.096410997233 0.079524954772 621.71171176 -72.8153570633 -617.425403938 0 -719.693403439 0 -705.997665036 719.693403439 -90 -72.8153570633 102.267999501 125.542917984 125.457223958 -144.542776042 1.23238708087e-95 -1.17213668928e-99 -9.57708205869e-99 9.64864242738e-99 -96.7446914218 2.1396643763e-90
0.096410997233 0.079643705157 653.172595869 -74.0338417277 -648.963341033 0 -753.541560471 0 -706.926872314 753.541560471 -90 -74.0338417277 104.578219438 128.131236371 125.295741272 -144.704258728 4.68921520696e-96 -3.38396945702e-100 -2.96576783775e-99 2.98501115661e-99 -96.5081836515 1.0002911109e-90
0.096410997233 0.079736268909 654.113937547 -73.941036266 -649.921348407 0 -754.38624917 0 -707.650258237 754.38624917 -90 -73.941036266 104.464900763 127.985125522 125.291143918 -144.708856082 4.68996420438e-96 -2.62603237477e-100 -2.30787142899e-99 2.3227636731e-99 -96.4905925096 1.00333634552e-90
0.096410997233 0.079807658136 654.842017382 -73.8693439227 -650.662265273 0 -755.03961153 0 -708.207614197 755.03961153 -90 -73.8693439227 104.377346257 127.872242471 125.287589219 -144.712410781 4.690678924e-96 -2.01852691355e-100 -1.77777004006e-99 1.7891927942e-99 -96.4770300092 1.00572422762e-90
0.096410997233 0.07986226678 655.400226167 -73.8144299593 -651.23028484 0 -755.540557986 0 -708.633633644 755.540557986 -90 -73.8144299593 104.310273145 127.785770571 125.284864523 -144.715135477 4.69131216486e-96 -1.54016926675e-100 -1.35869688776e-99 1.3673984265e-99 -96.4666573401 1.00757546939e-90
0.096410997233 0.079903777667 655.825308172 -73.7726422283 -651.662819767 0 -755.92204708 0 -708.957283603 755.92204708 -90 -73.7726422283 104.259227314 127.719964082 125.28279 -144.71721 4.69184667219e-96 -1.16855362212e-100 -1.03215772922e-99 1.03875153769e-99 -96.4587732497 1.00899776317e-90
0.096410997233 0.079935181834 656.030409741 -73.7524873085 -651.871512739 0 -756.106118418 0 -709.202024775 756.106118418 -90 -73.7524873085 104.234605679 127.68822344 125.281789137 -144.718210863 4.69211836946e-96 -9.87368957349e-101 -8.72699646272e-100 8.78267412114e-100 -96.4549729688 1.00968732957e-90
0.10549644968 0.077664969066 677.859051359 -77.8128411708 -673.371859864 0 -783.940412854 0 -781.880673385 783.940412854 -90 -77.8128411708 110.56855299 135.205627488 125.143618173 -144.856381827 1.852919854e-96 -4.851798931e-100 -4.22379314491e-99 4.25160479304e-99 -96.6070612695 4.35955195737e-91
0.10549644968 0.078033822604 679.813913498 -77.6309980467 -675.36047865 0 -785.703902984 0 -785.630487531 785.703902984 -90 -77.6309980467 110.343424334 134.916862467 125.135450726 -144.864549274 2.78237545557e-96 -6.95829533728e-100 -6.10030808248e-99 6.13991915217e-99 -96.5727285024 6.59776764448e-91
0.10549644968 0.078379102643 683.660360177 -77.2743950195 -679.272774823 0 -789.174569531 0 -789.138007741 789.174569531 -90 -77.2743950195 109.901794708 134.350469518 125.119406813 -144.880593187 6.41697829558e-96 -1.4524935813e-99 -1.28623511228e-98 1.29442181658e-98 -96.5056296967 1.5363545697e-90
0.10549644968 0.078689931403 687.139863208 -76.954017103 -682.810795214 0 -792.315560478 0 -792.293192358 792.315560478 -90 -76.954017103 109.504765264 133.841407375 125.104942384 -144.895057616 7.47973676521e-96 -1.56124420898e-99 -1.39018095271e-98 1.39893267499e-98 -96.4457706689 1.79978557772e-90
0.10549644968 0.078960057578 690.181875501 -76.6756125785 -685.903165562 0 -795.062713835 0 -795.033262363 795.062713835 -90 -76.6756125785 109.159548273 133.398879206 125.092333912 -144.907666088 5.32554513935e-96 -9.33078974261e-100 -8.38252684892e-99 8.43437354596e-99 -96.3940803077 1.29283884288e-90
0.10549644968 0.079187714856 692.762052345 -76.4406949759 -688.525478571 0 -797.393584883 0 -797.341050503 797.393584883 -90 -76.4406949759 108.868106312 133.025358062 125.081666343 -144.918333657 5.32498530067e-96 -7.76514035392e-100 -7.02449302387e-99 7.0673446275e-99 -96.3507008865 1.3024835175e-90
0.10549644968 0.079374668832 694.894109878 -76.2474120471 -690.691960345 0 -799.320175053 0 -799.235153297 799.320175053 -90 -76.2474120471 108.628214708 132.717956284 125.072869611 -144.927130389 5.32513164472e-96 -6.31376511757e-100 -5.74436634694e-99 5.77901116139e-99 -96.3151727888 1.31063015367e-90
0.10549644968 0.079524954772 696.617703337 -76.0917051197 -692.443125448 0 -800.878018316 0 -800.757029229 800.878018316 -90 -76.0917051197 108.434892868 132.470263405 125.065769936 -144.934230064 5.32572058562e-96 -5.03654548304e-100 -4.60361784623e-99 4.63112756409e-99 -96.2866591614 1.31735166688e-90
0.10549644968 0.079643705157 697.986297782 -75.9684132647 -693.833450272 0 -802.115224228 0 -801.959084983 802.115224228 -90 -75.9684132647 108.281773956 132.274101648 125.060139908 -144.939860092 5.32652257525e-96 -3.95634779524e-100 -3.62961288065e-99 3.65114375149e-99 -96.2641497422 1.32278486347e-90
0.10549644968 0.079736268909 699.057453146 -75.8721281721 -694.921513708 0 -803.083682667 0 -802.895767752 803.083682667 -90 -75.8721281721 108.162168959 132.120887916 125.055737948 -144.944262052 5.32737587543e-96 -3.0701637391e-100 -2.82474930059e-99 2.84140974112e-99 -96.2466130033 1.32710196467e-90
0.10549644968 0.079807658136 699.886314665 -75.7977493728 -695.763399038 0 -803.833159043 0 -803.617996981 803.833159043 -90 -75.7977493728 108.069760005 132.002520135 125.052334377 -144.947665623 5.32818258398e-96 -2.35988217987e-100 -2.17609777802e-99 2.18887550512e-99 -96.2330914347 1.33048447097e-90
0.10549644968 0.07986226678 700.522016092 -75.7407785946 -696.40905405 0 -804.408023625 0 -804.170352342 804.408023625 -90 -75.7407785946 107.998969575 131.911848442 125.049725547 -144.950274453 5.32889333492e-96 -1.80060923888e-100 -1.66322729409e-99 1.67296025404e-99 -96.2227494684 1.3331050222e-90
0.10549644968 0.079903777667 701.006241191 -75.6974262304 -696.900840584 0 -804.845936166 0 -804.590162984 804.845936166 -90 -75.6974262304 107.945095582 131.842846822 125.047739258 -144.952260742 5.32949107225e-96 -1.36614184978e-100 -1.26355708621e-99 1.27093203614e-99 -96.2148883626 1.33511722878e-90
0.10549644968 0.079935181834 713.710355556 -76.1953192808 -709.625579516 0 -818.54332287 0 -804.907724883 818.54332287 -90 -76.1953192808 108.917743354 132.925062284 124.982119739 -145.017880261 5.50447418479e-96 -1.11089016388e-100 -1.03689419582e-99 1.0428361328e-99 -96.1429731782 1.42589964292e-90
0.10549644968 0.079958854196 746.909794374 -77.5625489668 -742.871651996 0 -854.427293464 0 -805.147080953 854.427293464 -90 -77.5625489668 111.555641467 135.869827948 124.810166026 -145.189833974 5.9680991945e-96 -8.8952731228e-101 -8.51926631346e-100 8.56557980712e-100 -95.9606034505 1.66472447184e-90
0.10549644968 0.079976649736 747.14369386 -77.5432555822 -743.108836212 0 -854.640117958 0 -805.327003285 854.640117958 -90 -77.5432555822 111.531281746 135.838813654 124.809349959 -145.190650041 5.96843259913e-96 -6.68163983609e-101 -6.40290772687e-100 6.43767586098e-100 -95.9572429579 1.66586030078e-90
0.10549644968 0.07999 747.319301261 -77.5287762182 -743.286907397 0 -854.799906996 0 -805.46197474 854.799906996 -90 -77.5287762182 111.512999599 135.815537483 124.808737404 -145.191262596 5.96868999143e-96 -5.00960585625e-101 -4.80271046967e-100 4.82876685823e-100 -95.9547218281 1.66671533305e-90
0.11458190213 0.077664969066 760.677072872 -81.8358581541 -756.258578594 0 -874.708558923 0 -873.556123671 874.708558923 -90 -81.8358581541 118.449980329 143.971939634 124.648173964 -145.351826036 4.05879927124e-96 -1.12604181217e-99 -1.05446413822e-98 1.0604631988e-98 -96.1853838923 1.23614202341e-90
0.11458190213 0.078033822604 763.082319037 -81.6405184933 -758.698710394 0 -876.898313039 0 -878.247976477 876.898313039 -90 -81.6405184933 118.199602645 143.654903737 124.640798345 -145.359201655 4.59685148579e-96 -1.22277191847e-99 -1.1467164282e-98 1.15322203464e-98 -96.1512276149 1.38545372052e-90
0.11458190213 0.078379102643 767.821111742 -81.2574754025 -763.50555748 0 -881.214049439 0 -882.651997604 881.214049439 -90 -81.2574754025 117.70849196 143.033111992 124.626310412 -145.373689588 7.14263675227e-96 -1.70651371837e-99 -1.60449048315e-98 1.61354756327e-98 -96.0844560475 2.10876532063e-90
0.11458190213 0.078689931403 772.119420552 -80.9133937279 -767.864348114 0 -885.131417961 0 -886.626691265 885.131417961 -90 -80.9133937279 117.267069848 142.474355822 124.61324977 -145.38675023 8.24810304884e-96 -1.78649573905e-99 -1.69208119929e-98 1.70149452709e-98 -96.024855633 2.45751244148e-90
0.11458190213 0.078960057578 775.886599286 -80.6144298022 -771.683579986 0 -888.566903948 0 -890.088777371 888.566903948 -90 -80.6144298022 116.883323962 141.98870367 124.601865729 -145.398134271 7.00034273647e-96 -1.2902717692e-99 -1.24011170249e-98 1.24681170229e-98 -95.9733618098 2.14691267257e-90
0.11458190213 0.079187714856 779.088858752 -80.3621923812 -774.929397635 0 -891.488803675 0 -893.012309189 891.488803675 -90 -80.3621923812 116.55940604 141.578837725 124.592234665 -145.407765335 6.9998548915e-96 -1.0737392189e-99 -1.03964130872e-98 1.04517618236e-98 -95.9301271671 2.16467994867e-90
0.11458190213 0.079374668832 781.739937506 -80.1546786307 -777.61606516 0 -893.908883267 0 -895.417107842 893.908883267 -90 -80.1546786307 116.292818107 141.241562288 124.584293044 -145.415706956 7.00020533436e-96 -8.73019837442e-100 -8.50474215533e-99 8.54947202502e-99 -95.8947033292 2.1796804936e-90
0.11458190213 0.079524954772 783.886483413 -79.9875202337 -779.791117389 0 -895.869123058 0 -897.352860275 895.869123058 -90 -79.9875202337 116.078005669 140.969823017 124.577883765 -145.422116235 7.00106400234e-96 -6.96393325216e-100 -6.8177158057e-99 6.85322123042e-99 -95.8662637083 2.19204612477e-90
0.11458190213 0.079643705157 785.593099457 -79.8551689539 -781.520201784 0 -897.428081823 0 -898.884079805 897.428081823 -90 -79.8551689539 115.907880039 140.754633236 124.572801379 -145.427198621 7.00215252266e-96 -5.47020053704e-100 -5.37643907623e-99 5.40422003923e-99 -95.8438064483 2.20203198802e-90
0.11458190213 0.079736268909 786.930180766 -79.751813848 -782.874766214 0 -898.649765947 0 -900.078658447 898.649765947 -90 -79.751813848 115.774999733 140.586567142 124.568827704 -145.431172296 7.0032779897e-96 -4.2448138574e-100 -4.18492572479e-99 4.20641757873e-99 -95.8263064249 2.209959109e-90
0.11458190213 0.079807658136 787.965649495 -79.6719765528 -783.923702221 0 -899.596041706 0 -901.000583189 899.596041706 -90 -79.6719765528 115.672339486 140.456730713 124.565755338 -145.434244662 7.00432586631e-96 -3.26270206147e-100 -3.22435243003e-99 3.24083267054e-99 -95.8128107768 2.21616480931e-90
0.11458190213 0.07986226678 788.760306905 -79.6108265747 -784.728652456 0 -900.32235166 0 -901.706164044 900.32235166 -90 -79.6108265747 115.593699204 140.357277259 124.563400411 -145.436599589 7.00524049325e-96 -2.48942042805e-100 -2.46466820692e-99 2.47721967639e-99 -95.802487212 2.22096901145e-90
0.11458190213 0.079903777667 789.365903134 -79.5642950381 -785.342068018 0 -900.875921088 0 -902.242723093 900.875921088 -90 -79.5642950381 115.53385307 140.281594657 124.561607457 -145.438392543 7.00600494113e-96 -1.88872108307e-100 -1.87255268299e-99 1.88206228262e-99 -95.7946392586 2.22465563496e-90
0.11458190213 0.079935181834 789.82495169 -79.5290638672 -785.807029536 0 -901.29556717 0 -902.648766073 901.29556717 -90 -79.5290638672 115.488537634 140.224289355 124.560249357 -145.439750643 7.0066247034e-96 -1.42682554957e-100 -1.41610834757e-99 1.42328478668e-99 -95.7887016251 2.22746530209e-90
0.11458190213 0.079958854196 790.171499361 -79.5024899042 -786.158032972 0 -901.612388535 0 -902.954908855 901.612388535 -90 -79.5024899042 115.454355564 140.181064009 124.55922465 -145.44077535 7.00711626785e-96 -1.0743848984e-100 -1.06716684528e-99 1.07256634541e-99 -95.784225539 2.22959529567e-90
0.11458190213 0.079976649736 790.432310717 -79.4825033902 -786.422193153 0 -901.850839052 0 -903.185088661 901.850839052 -90 -79.4825033902 115.4286459 140.148553028 124.558453774 -145.441546226 7.00749995591e-96 -8.07015416674e-101 -8.02075573586e-100 8.06128943516e-100 -95.7808604619 2.2312034838e-90
0.11458190213 0.07999 790.628140471 -79.4675038953 -786.620534784 0 -902.029885497 0 -903.357792196 902.029885497 -90 -79.4675038953 115.409350712 140.124153702 124.557875141 -145.442124859 7.0077959206e-96 -6.05063450684e-101 -6.01631241173e-100 6.04668911708e-100 -95.7783358412 2.23241394348e-90
0.12366735457 0.077664969066 833.859466526 -85.8675496363 -829.4253883 0 -956.175928738 0 -955.835139443 956.175928738 -90 -85.8675496363 126.750540438 153.099471938 124.123925783 -145.876074217 7.0043663053e-96 -2.02256496032e-99 -1.95831901325e-98 1.96873850008e-98 -95.9143085584 2.4673242935e-90
0.12366735457 0.078033822604 836.634766791 -85.6584924316 -832.236858532 0 -958.709339407 0 -961.303545747 958.709339407 -90 -85.6584924316 126.472480875 152.752003708 124.117462986 -145.882537014 7.00327873702e-96 -1.95515918605e-99 -1.90374470751e-98 1.91376105815e-98 -95.8803575214 2.4834546765e-90
0.12366735457 0.078379102643 842.106640673 -85.2485741913 -837.77929209 0 -963.706416151 0 -966.447842694 963.706416151 -90 -85.2485741913 125.927124062 152.070578133 124.104768176 -145.895231824 6.29641597371e-96 -1.61148675476e-99 -1.57982981416e-98 1.58802939051e-98 -95.8139771765 2.21576752068e-90
0.12366735457 0.078689931403 847.077451326 -84.8803948108 -842.812811157 0 -968.249850335 0 -971.100437751 968.249850335 -90 -84.8803948108 125.437039177 151.458330011 124.093324126 -145.906675874 5.51180023043e-96 -1.22767978984e-99 -1.20933088033e-98 1.21554791926e-98 -95.7547069216 1.90882916855e-90
0.12366735457 0.078960057578 851.440156636 -84.5605268649 -847.229486596 0 -972.24054885 0 -975.160820283 972.24054885 -90 -84.5605268649 125.011062254 150.926258983 124.083349254 -145.916650746 5.51072206736e-96 -1.05024083754e-99 -1.04384008271e-98 1.04911141569e-98 -95.7034826725 1.92805725931e-90
0.12366735457 0.079187714856 855.153280331 -84.2906772297 -850.987773544 0 -975.639324303 0 -978.595417024 975.639324303 -90 -84.2906772297 124.651550759 150.477272052 124.07491044 -145.92508956 5.51045733954e-96 -8.73970887522e-100 -8.75272013385e-99 8.79625554954e-99 -95.6604623248 1.94472334801e-90
0.12366735457 0.079374668832 858.230609467 -84.0686910071 -854.102003757 0 -978.457709522 0 -981.424707485 978.457709522 -90 -84.0686910071 124.355705764 150.107841633 124.067951978 -145.932048022 5.51080733329e-96 -7.10579170716e-100 -7.16129106969e-99 7.19646638469e-99 -95.6252053714 1.95879010644e-90
0.12366735457 0.079524954772 860.724538554 -83.8898857775 -856.625491048 0 -980.742833755 0 -983.704905041 980.742833755 -90 -83.8898857775 124.117342707 149.810220047 124.062336191 -145.937663809 5.51152195777e-96 -5.66804606534e-100 -5.74149980578e-99 5.76941598748e-99 -95.5968937771 1.97038086013e-90
0.12366735457 0.079643705157 862.708809233 -83.7483199502 -858.633059703 0 -982.561640731 0 -985.510353398 982.561640731 -90 -83.7483199502 123.928581028 149.574549738 124.057883043 -145.942116957 5.51239373047e-96 -4.45218440586e-100 -4.52819560891e-99 4.55003517358e-99 -95.5745337128 1.97973658734e-90
0.12366735457 0.079736268909 864.264346449 -83.637773427 -860.206725963 0 -983.987880081 0 -986.919968688 983.987880081 -90 -83.637773427 123.781154118 149.390497698 124.054401352 -145.945598648 5.5132803094e-96 -3.45478252962e-100 -3.52494304362e-99 3.54183650812e-99 -95.557106967 1.9871601569e-90
0.12366735457 0.079807658136 865.469556292 -83.5523836986 -861.425900883 0 -985.093162089 0 -988.008514005 985.093162089 -90 -83.5523836986 123.667261206 149.2483174 124.051709386 -145.948290614 5.51409828556e-96 -2.65541757786e-100 -2.71601841765e-99 2.72897133069e-99 -95.5436663185 1.99296929856e-90
0.12366735457 0.07986226678 866.394816167 -83.4869824783 -862.361834195 0 -985.941853988 0 -988.842009547 985.941853988 -90 -83.4869824783 123.580019792 149.139412075 124.049646034 -145.950353966 5.51480821039e-96 -2.02604070615e-100 -2.07619549978e-99 2.08605980622e-99 -95.5333839206 1.99746491832e-90
0.12366735457 0.079903777667 867.100140372 -83.4372168963 -863.075266972 0 -986.58889703 0 -989.476071542 986.58889703 -90 -83.4372168963 123.513630058 149.056538725 124.048075077 -145.951924923 5.51539932739e-96 -1.53713963541e-100 -1.57746080005e-99 1.58493405113e-99 -95.5255667295 2.00091372437e-90
0.12366735457 0.079935181834 867.634898494 -83.3995375979 -863.616156831 0 -987.079517774 0 -989.956033048 987.079517774 -90 -83.3995375979 123.463360942 148.99378988 124.046885134 -145.953114866 5.5158773068e-96 -1.1612156202e-100 -1.19297704242e-99 1.19861650187e-99 -95.5196520607 2.00354151059e-90
0.12366735457 0.079958854196 868.03866707 -83.3711173708 -864.024546066 0 -987.449988949 0 -990.317983852 987.449988949 -90 -83.3711173708 123.425442883 148.946459126 124.045987304 -145.954012696 5.51625570704e-96 -8.74377866761e-101 -8.99034218251e-100 9.03277165906e-100 -95.5151931091 2.00553323677e-90
0.12366735457 0.079976649736 868.342580262 -83.3497424323 -864.33193203 0 -987.728855631 0 -990.590167188 987.728855631 -90 -83.3497424323 123.396923601 148.910860722 124.045311877 -145.954688123 5.51655066588e-96 -6.56778586146e-101 -6.75717850626e-100 6.78902924353e-100 -95.5118408123 2.00703680219e-90
0.12366735457 0.07999 868.570794148 -83.3337010459 -864.562750774 0 -987.938270766 0 -990.794410249 987.938270766 -90 -83.3337010459 123.375519992 148.88414451 124.04480489 -145.95519511 5.51677796353e-96 -4.9242088091e-101 -5.0685661286e-100 5.09243521065e-100 -95.5093257226 2.00816838114e-90
0.13275280702 0.077664969066 890.04121395 -89.8480814146 -885.494513111 0 -1020.86559789 0 -1020.07496394 1020.86559789 -90 -89.8480814146 135.371084781 162.476507692 123.580917091 -146.419082909 5.51222080086e-96 -1.64301929968e-99 -1.61599779946e-98 1.62432891423e-98 -95.7944356941 2.1322207181e-90
0.13275280702 0.078033822604 892.97831392 -89.6254433046 -888.468970713 0 -1023.53241757 0 -1025.81363423 1023.53241757 -90 -89.6254433046 135.063446854 162.09706098 123.57544506 -146.42455494 5.51145283391e-96 -1.58824019642e-99 -1.5709787949e-98 1.57898724787e-98 -95.7610629965 2.14616449198e-90
0.13275280702 0.078379102643 898.767070133 -89.1889149232 -894.330589837 0 -1028.79071863 0 -1031.20710321 1028.79071863 -90 -89.1889149232 134.460128792 161.352971129 123.564696222 -146.435303778 4.31285042914e-96 -1.15999494836e-99 -1.15944146375e-98 1.16523005317e-98 -95.695826487 1.71202294267e-90
0.13275280702 0.078689931403 904.02173967 -88.7968704988 -899.649989494 0 -1033.56804028 0 -1036.08070047 1033.56804028 -90 -88.7968704988 133.918050787 160.684511495 123.555006091 -146.444993909 2.98200782196e-96 -7.0234787535e-100 -7.11344837688e-99 7.14803889771e-99 -95.6376018704 1.21932100081e-90
0.13275280702 0.078960057578 908.630353889 -88.4562965617 -904.314294282 0 -1037.76124883 0 -1040.33049185 1037.76124883 -90 -88.4562965617 133.446954543 160.103660742 123.546559722 -146.453440278 2.98156604317e-96 -6.00814588943e-100 -6.14013818487e-99 6.16946407762e-99 -95.5873003289 1.23159447843e-90
0.13275280702 0.079187714856 912.550342401 -88.1689988182 -908.28087151 0 -1041.33028806 0 -1043.92273215 1041.33028806 -90 -88.1689988182 133.049416553 159.613562541 123.539413853 -146.460586147 2.98152293468e-96 -4.99956825154e-100 -5.14862543641e-99 5.1728432703e-99 -95.5450688857 1.24221902557e-90
0.13275280702 0.079374668832 915.797387543 -87.9326731004 -911.565972586 0 -1044.28828827 0 -1046.88007973 1044.28828827 -90 -87.9326731004 132.722315685 159.210340859 123.533521403 -146.466478597 2.98177275807e-96 -4.06472832792e-100 -4.21249229043e-99 4.23205803554e-99 -95.5104681983 1.25117356141e-90
0.13275280702 0.079524954772 918.42768953 -87.7423268255 -914.226751338 0 -1046.68554505 0 -1049.26227862 1046.68554505 -90 -87.7423268255 132.458793714 158.885519634 123.528765853 -146.471234147 2.98219009106e-96 -3.24217471863e-100 -3.3773004124e-99 3.39282730227e-99 -95.4826900528 1.25854192909e-90
0.13275280702 0.079643705157 920.519706287 -87.5916293712 -916.342785959 0 -1048.5929097 0 -1051.14772033 1048.5929097 -90 -87.5916293712 132.250123739 158.628326254 123.524994795 -146.475005205 2.98267284963e-96 -2.54660449964e-100 -2.66357262719e-99 2.67571900925e-99 -95.4607554297 1.26448240096e-90
0.13275280702 0.079736268909 922.159234489 -87.4739556702 -918.001000829 0 -1050.08815825 0 -1052.61931298 1050.08815825 -90 -87.4739556702 132.087157422 158.427474432 123.522046363 -146.477953637 2.98315203193e-96 -1.97604215297e-100 -2.0734140679e-99 2.08280914854e-99 -95.4436628191 1.26919128383e-90
0.13275280702 0.079807658136 923.429229968 -87.3830628224 -919.285389397 0 -1051.24665477 0 -1053.75543011 1051.24665477 -90 -87.3830628224 131.961265376 158.272321793 123.519766681 -146.480233319 2.98358811124e-96 -1.51878899349e-100 -1.5975756549e-99 1.60477896372e-99 -95.4304814242 1.27287302084e-90