TITLE = "Electromagnetic Field"
VARIABLES = X Y E ER EI EvR EvI EvR' EvI' Ev EvPhase EpR EpI Ep EpPhase EpToEvPhaseShift elConductivity Jr Ji J Jphase QJ
ZONE N=271, E=236, F=FEPOINT, ET=QUADRILATERAL
0.88896216092 0.023986979302 3.20224104791 -0.787770521075 -3.10383075168 0 -3.58519037326 0 -3.59098019314 3.58519037326 -90 -0.787770521075 0.481359621585 0.92319525517 148.573383911 -121.426616089 4.59118443155e-91 -1.60922537266e-100 -6.34037840262e-100 6.54140692729e-100 -104.241293169 2.35398008244e-90
0.88853627869 0.023858328086 3.19651641934 -0.78755661418 -3.09797841838 0 -3.57892398046 0 -3.57923757833 3.57892398046 -90 -0.78755661418 0.480945562086 0.922796896666 148.58840282 -121.41159718 4.99149294662e-91 -1.75298037513e-100 -6.89471151291e-100 7.1140701788e-100 -104.26342229 2.54936184644e-90
0.88811148563 0.023719985972 3.18460632111 -0.78701868873 -3.08582524501 0 -3.5658737615 0 -3.56596543517 3.5658737615 -90 -0.78701868873 0.480048516492 0.921870410929 148.618562473 -121.381437527 5.93435847407e-91 -2.08448305707e-100 -8.17184264401e-100 8.43351010425e-100 -104.30791877 3.008162589e-90
0.8876889442 0.023577536423 3.17161370213 -0.786235595182 -3.0726154123 0 -3.55161033204 0 -3.5519715045 3.55161033204 -90 -0.786235595182 0.478994919741 0.920653357901 148.649165158 -121.350834842 7.09307025192e-91 -2.48356647662e-100 -9.70442583604e-100 1.0017185185e-99 -104.353190856 3.56620265103e-90
0.88727140523 0.023424069443 3.15741650971 -0.785173397178 -3.058231535 0 -3.53599652869 0 -3.53616582516 3.53599652869 -90 -0.785173397178 0.477764993685 0.919106476643 148.680195147 -121.319804853 8.31138339451e-91 -2.90850615902e-100 -1.13271497151e-99 1.16946034987e-99 -104.399228176 4.14154116868e-90
0.88685436995 0.023264840854 3.14217588738 -0.783860767506 -3.04283255155 0 -3.51921152298 0 -3.51940756918 3.51921152298 -90 -0.783860767506 0.476378971435 0.917264787945 148.711537254 -121.288462746 9.80275413868e-91 -3.42540423882e-100 -1.32948888507e-99 1.37290748178e-99 -104.445875816 4.83708858413e-90
0.88644118579 0.023098875414 3.12581531302 -0.782287237134 -3.02634207449 0 -3.50117060065 0 -3.50148638324 3.50117060065 -90 -0.782287237134 0.474828526161 0.915115028653 148.74333065 -121.25666935 1.15713820524e-90 -4.03385710759e-100 -1.56032539621e-99 1.61162521156e-99 -104.493356071 5.65075920042e-90
0.88603119351 0.022923441078 3.10935153578 -0.780559052855 -3.00978288107 0 -3.48299622552 0 -3.48199440547 3.48299622552 -90 -0.780559052855 0.473213344453 0.912799738993 148.773713184 -121.226286816 1.35992739963e-90 -4.47289601247e-100 -1.72462414056e-99 1.78168373258e-99 -104.538887055 6.57077562531e-90
0.88566613868 0.022763971047 3.09187892874 -0.778588662006 -2.99224223613 0 -3.4636897559 0 -3.4640684462 3.4636897559 -90 -0.778588662006 0.471447519762 0.910199495792 148.804464895 -121.195535105 1.60228365643e-90 -4.97669601423e-100 -1.91240828071e-99 1.97610248611e-99 -104.585139433 7.6557681907e-90
0.88530477428 0.022593587434 3.07440021042 -0.776482696185 -2.9747285335 0 -3.44435867759 0 -3.44434977321 3.44435867759 -90 -0.776482696185 0.469630144093 0.907456833195 148.833750129 -121.166249871 1.8468015019e-90 -5.72734439956e-100 -2.19391443018e-99 2.26744041576e-99 -104.629352415 8.72436885038e-90
0.8849440521 0.022421848413 3.05594068042 -0.774131752021 -2.95626318679 0 -3.42392620264 0 -3.42433478398 3.42392620264 -90 -0.774131752021 0.467663015857 0.904427288794 148.86330845 -121.13669155 2.09771378333e-90 -6.48431927446e-100 -2.47601383848e-99 2.55951352847e-99 -104.674147736 9.79167193101e-90
0.88458917355 0.022238341288 3.03651606852 -0.771533576894 -2.93686300608 0 -3.40240931565 0 -3.40234861129 3.40240931565 -90 -0.771533576894 0.465546309569 0.901109028836 148.893086944 -121.106913056 2.33792173202e-90 -7.20164767167e-100 -2.74109694978e-99 2.83412262381e-99 -104.719457283 1.07747906671e-89
0.88423429331 0.022054833284 3.01632226955 -0.768735889141 -2.91671796602 0 -3.3800273613 0 -3.3802761904 3.3800273613 -90 -0.768735889141 0.463309395286 0.897558086503 148.923082918 -121.076917082 2.68608408074e-90 -8.24260460194e-100 -3.12695617479e-99 3.23376899414e-99 -104.7652906 1.22123727558e-89
0.88388350081 0.021863627976 3.00606592555 -0.76729579699 -2.90649092699 0 -3.3686569672 0 -3.35687263965 3.3686569672 -90 -0.76729579699 0.46216604021 0.895734496824 148.938141416 -121.061858584 2.91350015356e-90 -8.92407001333e-100 -3.38040800267e-99 3.49621917513e-99 -104.788349441 1.31638235179e-89
0.88315951299 0.021519253922 2.9689869495 -0.762612452126 -2.86937375644 0 -3.32760359692 0 -3.31599861674 3.32760359692 -90 -0.762612452126 0.458229840476 0.88969227199 148.99966601 -121.00033399 1.6955473746e-15 -5.53232639957e-24 -2.08157002141e-23 2.15383381624e-23 -104.883796221 7.47302629324e-15
0.88316488053 0.021510014059 2.9684267993 -0.762461080079 -2.86883439119 0 -3.32697445348 0 -3.3144926293 3.32697445348 -90 -0.762461080079 0.458140062288 0.889516281644 148.999601037 -121.000398963 9.25190683573e-16 -3.01865937054e-24 -1.13578816971e-23 1.17521819693e-23 -104.883646556 4.07772334939e-15
0.88316935347 0.021502314173 2.96728758096 -0.762153225948 -2.86773744409 0 -3.32569491842 0 -3.31323769421 3.32569491842 -90 -0.762153225948 0.457957474329 0.889158359415 148.999468901 -121.000531099 2.29521570182e-19 -6.23495401097e-28 -2.34599210095e-27 2.4274318637e-27 -104.88334212 1.01076264606e-18
0.88317308093 0.021495897601 2.96633827205 -0.761896695825 -2.86682335855 0 -3.32462868353 0 -3.31219195243 3.32462868353 -90 -0.761896695825 0.457805324988 0.888860107496 148.9993588 -121.0006412 2.13962945597e-22 -4.8406552674e-31 -1.82140207051e-30 1.88462859382e-30 -104.883088339 9.41594088203e-22
0.88317618714 0.021490550458 2.96554720862 -0.761682931067 -2.86606164607 0 -3.32374018496 0 -3.31132052732 3.32374018496 -90 -0.761682931067 0.457678538894 0.888611575686 148.999267058 -121.000732942 9.64011467546e-26 -1.81650932867e-34 -6.83512230874e-34 7.07238312852e-34 -104.882876797 4.23991148747e-25
0.88317877565 0.021486094505 2.96488800831 -0.761504801013 -2.86542690359 0 -3.32299979093 0 -3.31059435779 3.32299979093 -90 -0.761504801013 0.45757288734 0.888404473871 148.999190613 -121.000809387 2.00186845096e-29 -3.14206187883e-38 -1.18230415509e-37 1.22334322398e-37 -104.882700471 8.800376417e-29
0.88318093274 0.021482381211 2.96456379512 -0.761417192192 -2.86511471931 0 -3.32263564437 0 -3.30998922921 3.32263564437 -90 -0.761417192192 0.457520925059 0.88830261591 148.999153016 -121.000846984 2.83318616296e-33 -3.70432020632e-42 -1.39388793121e-41 1.44227024052e-41 -104.882613737 1.24499244882e-32
0.88350742384 0.021717464238 2.98009015231 -0.764272524165 -2.88042068378 0 -3.33992613889 0 -3.34069538724 3.33992613889 -90 -0.764272524165 0.45950545511 0.891772286536 148.984384431 -121.015615569 1.39048669798e-15 -4.54489031377e-24 -1.71227130911e-23 1.77156253747e-23 -104.860175754 6.16440555609e-15
0.88351265306 0.02170814076 2.97952845138 -0.76412123298 -2.87987968949 0 -3.33929530232 0 -3.33918083077 3.33929530232 -90 -0.76412123298 0.459415612827 0.891596332719 148.984322795 -121.015677205 7.58728990732e-16 -2.47986751892e-24 -9.3428129215e-24 9.6663287414e-24 -104.86003171 3.36365121757e-15
0.88351701075 0.021700371196 2.97838607732 -0.763813542877 -2.87877942747 0 -3.33801232178 0 -3.33791875336 3.33801232178 -90 -0.763813542877 0.459232894314 0.891238484315 148.984197443 -121.015802557 1.85153790852e-19 -5.03828493797e-28 -1.89813479255e-27 1.96386340158e-27 -104.859738712 8.20031907062e-19
0.88352064215 0.021693896558 2.97743413826 -0.763557149027 -2.8778625792 0 -3.33694321534 0 -3.3368670589 3.33694321534 -90 -0.763557149027 0.459080636144 0.890940293541 148.984092988 -121.015907012 1.69879698722e-22 -3.84970882286e-31 -1.45032721346e-30 1.50055055337e-30 -104.859494464 7.51752524069e-22
0.88352366832 0.021688501027 2.97664088386 -0.76334349774 -2.87709856533 0 -3.33605232481 0 -3.33599067242 3.33605232481 -90 -0.76334349774 0.458953759477 0.890691812669 148.984005945 -121.015994055 7.53982165995e-26 -1.42304583484e-34 -5.36105211159e-34 5.54670568998e-34 -104.859290864 3.33412806544e-25
0.88352619013 0.021684004751 2.97597985566 -0.763165461763 -2.87646190302 0 -3.33530993524 0 -3.33526036805 3.33530993524 -90 -0.763165461763 0.458848032215 0.890484752771 148.983933414 -121.016066586 1.54523137837e-29 -2.42917432533e-38 -9.15130959766e-38 9.46822946201e-38 -104.859121161 6.82890384509e-29
0.88352829164 0.021680257855 2.97876971158 -0.763526932955 -2.87925237602 0 -3.3383999919 0 -3.33465179346 3.3383999919 -90 -0.763526932955 0.459147615884 0.890948910952 148.979396569 -121.020603431 1.52084469806e-33 -1.99152087611e-42 -7.5023974574e-42 7.76222469522e-42 -104.852068795 6.71745953971e-33
0.88353004289 0.021677135441 2.98624628082 -0.764604707112 -2.88670166307 0 -3.34669315147 0 -3.33414465655 3.34669315147 -90 -0.764604707112 0.459991488402 0.89230741762 148.968592821 -121.031407179 3.51356745529e-38 -3.84418616175e-47 -1.45134060555e-46 1.50138843268e-46 -104.835342014 1.56664120101e-37
0.88385535013 0.021915647085 3.0020173407 -0.767517767829 -2.90224449254 0 -3.3642566654 0 -3.36529390379 3.3642566654 -90 -0.767517767829 0.462012172861 0.895845314823 148.953929964 -121.046070036 9.78966467963e-16 -3.21467883306e-24 -1.21536107616e-23 1.2571572713e-23 -104.813216783 4.40787275801e-15
0.8838604382 0.021906244932 3.00145265478 -0.767366660995 -2.90170035535 0 -3.36362256981 0 -3.36377165616 3.36362256981 -90 -0.767366660995 0.461922214457 0.895669459597 148.953875073 -121.046124927 5.34176473236e-16 -1.75404305787e-24 -6.63144211869e-24 6.85949701829e-24 -104.813083749 2.40517075128e-15
0.88386467826 0.021898409805 3.00030421208 -0.767059345633 -2.90059370365 0 -3.3623329635 0 -3.36250316807 3.3623329635 -90 -0.767059345633 0.461739259855 0.895311811582 148.953763434 -121.046236566 1.2608518357e-19 -3.44701101757e-28 -1.30320819684e-27 1.34802475914e-27 -104.812813135 5.67206006722e-19
0.88386821164 0.021891880532 2.99934721524 -0.766803262937 -2.89967153036 0 -3.36125833487 0 -3.36144613041 3.36125833487 -90 -0.766803262937 0.461586804518 0.895013786608 148.953670403 -121.046329597 1.11868063358e-22 -2.54702273589e-31 -9.62954577188e-31 9.96069740444e-31 -104.812587535 5.02873091276e-22
0.88387115613 0.021886439471 2.99854974244 -0.766589869722 -2.89890307561 0 -3.36036283851 0 -3.36056529043 3.36036283851 -90 -0.766589869722 0.461459762899 0.894765442522 148.95359288 -121.04640712 4.80386872989e-26 -9.10963364809e-35 -3.44409057952e-34 3.56252947185e-34 -104.812399478 2.15808743859e-25
0.88387360987 0.021881905254 2.99788520108 -0.766412048601 -2.89826271486 0 -3.3596166131 0 -3.35983127446 3.3596166131 -90 -0.766412048601 0.461353898241 0.894558496468 148.953528278 -121.046471722 9.55391126521e-30 -1.50906669878e-38 -5.70534923431e-38 5.90155046083e-38 -104.812242719 4.28971605687e-29
0.88387565465 0.021878126739 2.99733143137 -0.766263869127 -2.89772909487 0 -3.35899477506 0 -3.35921960639 3.35899477506 -90 -0.766263869127 0.461265680195 0.894386046822 148.95347444 -121.04652556 6.99989818525e-34 -9.21005919339e-43 -3.4820337878e-42 3.60177918558e-42 -104.812112054 3.14146430821e-33
0.88387735864 0.021874977978 2.9970590725 -0.766190990923 -2.89746664606 0 -3.35868893837 0 -3.35870989146 3.35868893837 -90 -0.766190990923 0.46122229231 0.894301231893 148.953447963 -121.046552037 3.02893345934e-38 -3.31994445354e-47 -1.25515666641e-46 1.29832154752e-46 -104.812047784 1.3587964229e-37
0.88387877862 0.021872354009 3.00710543872 -0.767573056051 -2.90749285867 0 -3.36982417477 0 -3.35828513475 3.36982417477 -90 -0.767573056051 0.462331316104 0.896057276198 148.938235945 -121.061764055 2.78838275953e-49 -2.12666309082e-58 -8.05559510018e-58 8.33158498246e-58 -104.788584422 1.26072308552e-48
0.88387996195 0.021870167369 3.00697377971 -0.767537939823 -2.90736595956 0 -3.36967634271 0 -3.35793117474 3.36967634271 -90 -0.767537939823 0.462310383155 0.896016394627 148.938223973 -121.061776027 1.52099700344e-49 -1.16004447892e-58 -4.39413683377e-58 4.54468279498e-58 -104.788554666 6.87694696356e-49
0.88388094805 0.021868345169 3.00670605934 -0.767466533245 -2.90710791812 0 -3.36937573545 0 -3.357636211 3.36937573545 -90 -0.767466533245 0.462267817321 0.89593326458 148.938199627 -121.061800373 5.51914636235e-56 -3.5071573369e-65 -1.32848359399e-64 1.37399788405e-64 -104.788494155 2.49491386065e-55
0.8838817698 0.021866826669 3.00648296094 -0.767407028414 -2.9068928854 0 -3.36912523151 0 -3.35739040982 3.36912523151 -90 -0.767407028414 0.462232346115 0.895863990265 148.938179339 -121.061820661 3.02798394277e-63 -1.6031998876e-72 -6.07281841698e-72 6.28087361799e-72 -104.788443725 1.36857146312e-62
0.8838824546 0.021865561252 3.00629704737 -0.767357441605 -2.90671369313 0 -3.36891648019 0 -3.35718557666 3.36891648019 -90 -0.767357441605 0.462202787063 0.895806262288 148.938162433 -121.061837567 1.96303308726e-71 -8.66014959948e-81 -3.28041971014e-80 3.39280641734e-80 -104.788401695 8.87122139577e-71
0.88388302526 0.021864506738 3.00614212015 -0.767316119535 -2.90656436696 0 -3.36874252161 0 -3.35701488342 3.36874252161 -90 -0.767316119535 0.462178154649 0.89575815594 148.938148344 -121.061851656 3.31769029397e-80 -1.21956392149e-89 -4.61965720336e-89 4.77792516006e-89 -104.788366668 1.499143511e-79
0.88418532343 0.022148685277 3.03885244185 -0.773429004465 -2.93878065503 0 -3.40517719446 0 -3.39542001389 3.40517719446 -90 -0.773429004465 0.466396539432 0.903171167023 148.908998949 -121.091001051 1.10214872372e-06 -6.31589951636e-15 -2.39983802141e-14 2.48155765519e-14 -104.744760315 5.08896461785e-06
0.88419387031 0.022132304965 3.03786941418 -0.773168480073 -2.93783271799 0 -3.4040735839 0 -3.39277644731 3.4040735839 -90 -0.773168480073 0.466240865914 0.902867677806 148.908921259 -121.091078741 6.22900162126e-07 -3.54882226092e-15 -1.34843917796e-14 1.39435634292e-14 -104.744558762 2.87598279457e-06
0.88420099271 0.022118654704 3.03586984048 -0.772638551951 -2.93590452098 0 -3.40182873271 0 -3.39057362453 3.40182873271 -90 -0.772638551951 0.465924211729 0.902250354967 148.908763218 -121.091236782 2.64783385212e-08 -1.25792861038e-16 -4.7798755375e-16 4.94263032633e-16 -104.744148639 1.22081461431e-07
0.88420692805 0.022107279487 3.0275301252 -0.771230414484 -2.92765111259 0 -3.39255637891 0 -3.38873804267 3.39255637891 -90 -0.771230414484 0.464905266326 0.900518354595 148.918042641 -121.081957359 4.94235367311e-10 -1.96185649812e-18 -7.45485169081e-18 7.70867658234e-18 -104.75819926 2.27608600853e-09
0.88421187416 0.022097800139 3.02254639248 -0.770390650521 -2.92271850395 0 -3.38701551017 0 -3.38720846327 3.38701551017 -90 -0.770390650521 0.464297006217 0.899485141917 148.923611935 -121.076388065 3.96121475665e-16 -1.30589616703e-24 -4.95264717146e-24 5.12192179829e-24 -104.766633373 1.80765843035e-15
0.88421599592 0.022089900683 3.02139222977 -0.770083794359 -2.92160580356 0 -3.3857196719 0 -3.38593386391 3.3857196719 -90 -0.770083794359 0.464113868334 0.899127793563 148.923513842 -121.076486158 9.12786480628e-20 -2.5053351679e-28 -9.50144896494e-28 9.8262023033e-28 -104.766384651 4.16144105257e-19
0.88421943072 0.022083317802 3.02043046342 -0.769828093104 -2.9206785871 0 -3.38463984676 0 -3.3848717324 3.38463984676 -90 -0.769828093104 0.463961259657 0.898830016944 148.9234321 -121.0765679 7.90979644314e-23 -1.8080150787e-31 -6.8567806725e-31 7.09114711723e-31 -104.766177297 3.60319493084e-22
0.88422229306 0.022077832069 3.01962901822 -0.7696150175 -2.91990593205 0 -3.38374002235 0 -3.38398664703 3.38374002235 -90 -0.7696150175 0.463834090299 0.898581879622 148.923363981 -121.076636019 3.32068270801e-26 -6.32178958868e-35 -2.39746324429e-34 2.47941145817e-34 -104.766004438 1.51164623267e-25
0.88422467833 0.022073260624 3.01896116597 -0.769437460568 -2.91926207061 0 -3.3829901896 0 -3.38324909275 3.3829901896 -90 -0.769437460568 0.463728118989 0.89837510535 148.923307214 -121.076692786 6.45852585822e-30 -1.0241297722e-38 -3.88382012526e-38 4.0165785171e-38 -104.765860344 2.93829698125e-29
0.88422666607 0.022069451087 3.01840463316 -0.769289500415 -2.91872552945 0 -3.38236534097 0 -3.38263447565 3.38236534097 -90 -0.769289500415 0.46363981152 0.898202797856 148.923259911 -121.076740089 4.60958936396e-34 -6.08866964135e-43 -2.3089685013e-42 2.38789768808e-42 -104.765740241 2.09603715655e-33
0.88422832251 0.022066276473 3.02102473261 -0.76960739491 -2.92135132109 0 -3.38526440932 0 -3.38212230302 3.38526440932 -90 -0.76960739491 0.463913088233 0.898616128685 148.918796014 -121.081203986 1.37558617344e-38 -1.5136122818e-47 -5.73988179919e-47 5.93609892106e-47 -104.758870437 6.252241255e-38
0.88422970288 0.022063630961 3.02134197391 -0.769587531034 -2.92168463212 0 -3.3856088549 0 -3.381695498 3.3856088549 -90 -0.769587531034 0.463924222782 0.89860486324 148.917533321 -121.082466679 3.28641293166e-44 -3.02054562935e-53 -1.14789182986e-52 1.18696782267e-52 -104.756892832 1.50659045197e-43
0.88423085319 0.022061426367 3.01723234453 -0.768977837473 -2.91759535082 0 -3.38104915066 0 -3.38133983093 3.38104915066 -90 -0.768977837473 0.463453799848 0.897839849207 148.923160269 -121.076839731 1.15206307381e-49 -8.79861592453e-59 -3.33654858275e-58 3.45061075794e-58 -104.765487156 5.23311521063e-49
0.88423181178 0.022059589206 3.0169639764 -0.768906489266 -2.91733662285 0 -3.38074783948 0 -3.38104344454 3.38074783948 -90 -0.768906489266 0.463411216631 0.897756760275 148.923137448 -121.076862552 4.19145007043e-56 -2.66712127842e-65 -1.01141707491e-64 1.04599236059e-64 -104.765429185 1.90359696078e-55
0.8842326106 0.022058058239 3.01674032944 -0.768847031845 -2.91712100927 0 -3.38049673924 0 -3.38079645791 3.38049673924 -90 -0.768847031845 0.46337572997 0.897687518666 148.923118444 -121.076881556 2.32863843017e-63 -1.23465541959e-72 -4.68216367534e-72 4.84221376554e-72 -104.765380891 1.0575276166e-62
0.88423327629 0.022056782432 3.01655396379 -0.768797485229 -2.91694133801 0 -3.38028749661 0 -3.38059063675 3.38028749661 -90 -0.768797485229 0.463346158599 0.89762981882 148.9231026 -121.0768974 1.55317060149e-71 -6.86211332265e-81 -2.6024712748e-80 2.69142040982e-80 -104.765340631 7.05437482291e-71
0.88423383103 0.02205571926 3.01639866073 -0.768756196806 -2.91679161356 0 -3.38011312959 0 -3.38041912013 3.38011312959 -90 -0.768756196806 0.463321516033 0.897581736103 148.923089395 -121.076910605 2.77328875727e-80 -1.02109061123e-89 -3.87294613957e-89 4.00528904548e-89 -104.765307077 1.26004464297e-79
0.88453165324 0.022352763179 3.06139582932 -0.776825796685 -2.96119673534 0 -3.43019362254 0 -3.42074951713 3.43019362254 -90 -0.776825796685 0.468996887203 0.907422943616 148.879151873 -121.120848127 1.39396262194e-05 -9.63476003059e-14 -3.6726921364e-13 3.79696635977e-13 -104.699463716 6.5322095071e-05
0.8845416141 0.022332948608 3.05353808641 -0.775550009188 -2.95340748417 0 -3.42146344604 0 -3.41756235808 3.42146344604 -90 -0.775550009188 0.468055961871 0.905844494496 148.888421854 -121.111578146 5.87862079451e-06 -3.98713038427e-14 -1.51962241806e-13 1.57105838623e-13 -104.713463788 2.75215349908e-05
0.88454991482 0.022316436466 3.04783472907 -0.774523689323 -2.9477802002 0 -3.41511546932 0 -3.41490660112 3.41511546932 -90 -0.774523689323 0.467335269116 0.904593419837 148.893915851 -121.106084149 5.86731323597e-07 -3.34832304593e-15 -1.274203138e-14 1.31746217599e-14 -104.721677323 2.72571960302e-06
0.88455683208 0.022302676347 3.04583069483 -0.77399425613 -2.9458472526 0 -3.41286577349 0 -3.41269361543 3.41286577349 -90 -0.77399425613 0.467018520895 0.903976472785 148.893769158 -121.106230842 2.47470650973e-08 -1.17759668913e-16 -4.48141285397e-16 4.63355139561e-16 -104.721285141 1.14797818762e-07
0.88456259647 0.022291209581 3.04416077547 -0.773553096046 -2.94423656669 0 -3.41099114884 0 -3.41084956129 3.41099114884 -90 -0.773553096046 0.466754582141 0.903462388915 148.893646898 -121.106353102 6.67622325355e-10 -2.65434470887e-18 -1.01014036451e-17 1.04443247125e-17 -104.720958052 3.09327221161e-09
0.88456740012 0.022281653943 3.04276925114 -0.773185486264 -2.94289439985 0 -3.4094290455 0 -3.40931291967 3.4094290455 -90 -0.773185486264 0.466534645648 0.903034012361 148.893545005 -121.106454995 2.82492816734e-16 -9.34955209124e-25 -3.55790433438e-24 3.67869903872e-24 -104.72068529 1.30720499798e-15
0.88457140317 0.022273690912 3.0416097004 -0.772879161367 -2.94177597772 0 -3.40812735173 0 -3.40803243354 3.40812735173 -90 -0.772879161367 0.466351374007 0.902677050634 148.893460087 -121.106539913 6.30877202804e-20 -1.7384255261e-28 -6.61547197135e-28 6.84007310092e-28 -104.720457857 2.91673639485e-19
0.88457473904 0.022267055052 3.04064344329 -0.772623901886 -2.94084399266 0 -3.4070426462 0 -3.40696539546 3.4070426462 -90 -0.772623901886 0.466198653545 0.902379595228 148.893389319 -121.106610681 5.2996387435e-23 -1.21620424391e-31 -4.62819216472e-31 4.78532329569e-31 -104.720268243 2.44835828524e-22
0.88457751893 0.022261525169 3.03983825598 -0.772411193843 -2.94006736411 0 -3.40613875499 0 -3.40607622057 3.40613875499 -90 -0.772411193843 0.46607139088 0.902131725003 148.89333034 -121.10666966 2.15921818805e-26 -4.12706549318e-35 -1.57052769117e-34 1.62384861799e-34 -104.720110164 9.96901864177e-26
0.88457983551 0.022256916933 3.03916728293 -0.772233942505 -2.93942018916 0 -3.40538553061 0 -3.40533525767 3.40538553061 -90 -0.772233942505 0.465965341446 0.901925172516 148.89328119 -121.10671881 4.06017126155e-30 -6.4640671983e-39 -2.45983944084e-38 2.54335461998e-38 -104.719978391 1.87353326733e-29
0.88458176599 0.022253076736 3.03860815033 -0.772086236835 -2.9388808877 0 -3.40475785659 0 -3.40471779989 3.40475785659 -90 -0.772086236835 0.465876968889 0.901753049698 148.893240231 -121.106759769 2.80104579214e-34 -3.71473369768e-43 -1.41359371801e-42 1.46158817498e-42 -104.719868551 1.29191324577e-33
0.88458337472 0.022249876572 3.03814221751 -0.771963151757 -2.93843148042 0 -3.40423480718 0 -3.40420325967 3.40423480718 -90 -0.771963151757 0.465803326767 0.901609617433 148.893206094 -121.106793906 6.27110222521e-39 -6.92825590205e-48 -2.63643537988e-47 2.72594936701e-47 -104.71977699 2.89124865923e-38
0.88458471534 0.022247209769 3.03775394219 -0.771860582235 -2.93805697607 0 -3.40379893498 0 -3.40377448146 3.40379893498 -90 -0.771860582235 0.465741958904 0.901490092022 148.893177652 -121.106822348 4.03562175166e-44 -3.71439630513e-53 -1.41344498915e-52 1.4614357541e-52 -104.719700685 1.85999272001e-43
0.88458583251 0.022244987433 3.03743038513 -0.7717751091 -2.93774489463 0 -3.40343571449 0 -3.40341717025 3.40343571449 -90 -0.7717751091 0.465690819861 0.901390489201 148.893153946 -121.106846054 6.59505790379e-50 -5.05725905377e-59 -1.92444612579e-58 1.9897869704e-58 -104.719637083 3.03885633179e-49
0.88458676349 0.022243135487 3.03716076306 -0.771703883226 -2.93748483541 0 -3.40313304054 0 -3.40311941357 3.40313304054 -90 -0.771703883226 0.465648205132 0.90130748893 148.893134183 -121.106865817 2.41045198744e-56 -1.54004303709e-65 -5.86036643247e-65 6.05934261184e-65 -104.719584061 1.11046500436e-55
0.88458753931 0.022241592198 3.03693607345 -0.771644528055 -2.93726811477 0 -3.40288080723 0 -3.40287128467 3.40288080723 -90 -0.771644528055 0.465612692466 0.901238321599 148.893117722 -121.106882278 1.3808885188e-63 -7.35107066457e-73 -2.79736897462e-72 2.89234452667e-72 -104.719539885 6.36090282884e-63
0.88458818582 0.022240306124 3.03674883037 -0.771595065397 -2.93708751243 0 -3.40267061088 0 -3.40266451199 3.40267061088 -90 -0.771595065397 0.465583098454 0.901180682079 148.89310401 -121.10689599 9.86354381673e-72 -4.37525194075e-81 -1.66501472885e-80 1.72154082146e-80 -104.719503076 4.54353977672e-71
0.88458872459 0.022239234395 3.0365928025 -0.771553847823 -2.93693701845 0 -3.40249545618 0 -3.40249220202 3.40249545618 -90 -0.771553847823 0.465558437731 0.901132650758 148.893092572 -121.106907428 1.99203147777e-80 -7.36324800513e-90 -2.8022945664e-89 2.89741787774e-89 -104.719472384 9.17748832529e-80
0.88488826887 0.02253712322 3.07091101809 -0.778061768509 -2.97070915623 0 -3.44072921946 0 -3.44280967308 3.44072921946 -90 -0.778061768509 0.470020063227 0.90900991824 148.864232391 -121.135767609 1.31913972703e-05 -9.13270881971e-14 -3.48663146832e-13 3.60425647327e-13 -104.676804343 6.21794402983e-05
0.88489792892 0.022517160949 3.06972365103 -0.777750053857 -2.96956338126 0 -3.43939649669 0 -3.43960972316 3.43939649669 -90 -0.777750053857 0.469833115427 0.908646443092 148.864159162 -121.135840838 7.6121688576e-06 -5.22187002115e-14 -1.99357583157e-13 2.06083102739e-13 -104.676594352 3.58775213508e-05
0.88490597896 0.022500525722 3.0673082476 -0.777115949986 -2.96723258593 0 -3.43668540231 0 -3.43694330032 3.43668540231 -90 -0.777115949986 0.469452816377 0.90790704494 148.864010177 -121.135989823 5.14956609297e-07 -2.94921793462e-15 -1.12595053871e-14 1.16393457305e-14 -104.676166946 2.42288558497e-06
0.88491268732 0.022486663034 3.0652955638 -0.776587574255 -2.96529040234 0 -3.4344263265 0 -3.43472142202 3.4344263265 -90 -0.776587574255 0.469135924164 0.907290929853 148.863885999 -121.136114001 2.13362339549e-08 -1.01887191788e-16 -3.88988835444e-16 4.021111028e-16 -104.675810364 1.00241362094e-07
0.88491827763 0.022475110793 3.06361843396 -0.776147292027 -2.96367201808 0 -3.43254388195 0 -3.43286995397 3.43254388195 -90 -0.776147292027 0.468871863869 0.906777535607 148.863782501 -121.136217499 5.67241578915e-10 -2.26307977975e-18 -8.64015531105e-18 8.93161946186e-18 -104.675512926 2.66178315503e-09
0.88492293621 0.022465483926 3.06222089925 -0.775780411425 -2.96232343486 0 -3.43097525986 0 -3.43132713194 3.43097525986 -90 -0.775780411425 0.468651825002 0.906349731147 148.863696242 -121.136303758 2.19022022956e-16 -7.27398437203e-25 -2.77694984868e-24 2.8706375958e-24 -104.675264862 1.02643429694e-15
0.88492681837 0.022457461537 3.06105633839 -0.775474692513 -2.9611996647 0 -3.42966813196 0 -3.4300414938 3.42966813196 -90 -0.775474692513 0.468468467261 0.905993244332 148.863624352 -121.136375648 4.79449539395e-20 -1.32573097909e-28 -5.06116274762e-28 5.2319150555e-28 -104.675058005 2.24490936095e-19
0.8849300535 0.022450776213 3.06008590579 -0.775219936925 -2.96026322281 0 -3.42857889737 0 -3.42897016142 3.42857889737 -90 -0.775219936925 0.468315674556 0.905696183493 148.863564441 -121.136435559 3.94940117999e-23 -9.09476137535e-32 -3.47203786521e-31 3.58917758441e-31 -104.674885529 1.84782187765e-22
0.88493274944 0.022445205109 3.05927723702 -0.775007647811 -2.95948287858 0 -3.42767122975 0 -3.42807740706 3.42767122975 -90 -0.775007647811 0.46818835117 0.905448640966 148.86351451 -121.13648549 1.57938482911e-26 -3.02922490394e-35 -1.15643798687e-34 1.19545433545e-34 -104.674741731 7.38483544491e-26
0.88493499606 0.022440562523 3.05860336371 -0.774830745229 -2.9588326083 0 -3.42691485933 0 -3.4273334609 3.42691485933 -90 -0.774830745229 0.468082251029 0.905242361204 148.863472899 -121.136527101 2.90059407907e-30 -4.63389822245e-39 -1.76901970049e-38 1.82870482305e-38 -104.674621853 1.35549900303e-29
0.88493686824 0.022436693701 3.0580418153 -0.774683329949 -2.95829072859 0 -3.42628456475 0 -3.42671351669 3.42628456475 -90 -0.774683329949 0.467993836168 0.905070465426 148.86343822 -121.13656178 1.95518930438e-34 -2.60191672813e-43 -9.93286425011e-43 1.02679977897e-42 -104.674521921 9.13262991072e-34
0.88493842839 0.022433469683 3.05757386351 -0.774560485881 -2.95783916701 0 -3.42575932507 0 -3.42619690417 3.42575932507 -90 -0.774560485881 0.467920158066 0.904927221146 148.863409325 -121.136590675 4.28902076691e-39 -4.75483159958e-48 -1.81514682162e-47 1.87639088214e-47 -104.674438629 2.0025950479e-38
0.88493972852 0.022430783001 3.05718391157 -0.774458117796 -2.95746287333 0 -3.42532163411 0 -3.42576639889 3.42532163411 -90 -0.774458117796 0.467858760779 0.904807853185 148.863385242 -121.136614758 2.71867329863e-44 -2.51091191821e-53 -9.58528797425e-53 9.90870520034e-53 -104.674369199 1.26897107661e-43
0.88494081195 0.022428544099 3.05685895989 -0.774372812739 -2.95714930336 0 -3.4249569008 0 -3.42540764829 3.4249569008 -90 -0.774372812739 0.467807597438 0.904708381873 148.863365165 -121.136634835 4.41495962426e-50 -3.39719504217e-59 -1.2968630635e-58 1.34062053271e-58 -104.674311318 2.06022083255e-49
0.88494171482 0.022426678348 3.05658816226 -0.774301725065 -2.95688799038 0 -3.42465295135 0 -3.42510869191 3.42465295135 -90 -0.774301725065 0.467764960971 0.904625488824 148.863348446 -121.136651554 1.61332782206e-56 -1.03432182734e-65 -3.94849350065e-65 4.08171839185e-65 -104.674263095 7.52710895262e-56
0.88494246721 0.022425123555 3.05636250367 -0.774242486417 -2.95667023558 0 -3.4243996669 0 -3.42485956331 3.4243996669 -90 -0.774242486417 0.467729431319 0.90455641259 148.863334506 -121.136665494 9.41716712932e-64 -5.03052118197e-73 -1.92042527677e-72 1.98521919758e-72 -104.674222894 4.39323906797e-63
0.8849430942 0.022423827894 3.05617445508 -0.774193121118 -2.95648877343 0 -3.42418859679 0 -3.42465195737 3.42418859679 -90 -0.774193121118 0.467699823364 0.904498849312 148.863322892 -121.136677108 7.04041569679e-72 -3.13380805517e-81 -1.19639619601e-80 1.23675851173e-80 -104.674189392 3.28451352528e-71
0.88494361669 0.022422748177 3.05601774563 -0.774151983238 -2.95633755262 0 -3.42401270249 0 -3.42447895338 3.42401270249 -90 -0.774151983238 0.467675149872 0.904450879702 148.863313218 -121.136686782 1.55024024625e-80 -5.7501703123e-90 -2.19541288032e-89 2.26946757725e-89 -104.674161479 7.23347671477e-80
0.88525072101 0.022709729451 3.08943124469 -0.780404105121 -2.98923960055 0 -3.46122731418 0 -3.46289925807 3.46122731418 -90 -0.780404105121 0.47198771363 0.91203235943 148.834511585 -121.165488415 1.16013470651e-05 -8.05785891083e-14 -3.08610330342e-13 3.18956518182e-13 -104.631750733 5.53420629049e-05