TITLE = "Electromagnetic Field"
VARIABLES = X Y E ER EI EvR EvI EvR' EvI' Ev EvPhase EpR EpI Ep EpPhase EpToEvPhaseShift elConductivity Jr Ji J Jphase QJ
ZONE N=292, E=255, F=FEPOINT, ET=QUADRILATERAL
0.74928768272 0.022129186217 6.13812335574 -2.16451486682 -5.74381699931 0 -7.10489127453 0 -7.19329091859 7.10489127453 -90 -2.16451486682 1.36107427522 2.55688243597 147.837800182 -122.162199818 271.126334966 -0.00540483986649 -0.0143424337617 0.015327025158 -110.648545863 5107.55358711
0.74938056106 0.02343662098 6.31304179645 -2.20088329518 -5.91691812945 0 -7.30562109797 0 -7.61072850766 7.30562109797 -90 -2.20088329518 1.38870296852 2.60238330598 147.750609596 -122.249390404 260.206907889 -0.00527405500108 -0.0141714701606 0.0151211831465 -110.410013067 5177.14127227
0.74948287821 0.024742093126 6.66195628906 -2.27084167316 -6.26292182794 0 -7.70573791602 0 -8.02603969447 7.70573791602 -90 -2.27084167316 1.44281608808 2.69043844619 147.570966163 -122.429033837 239.581241758 -0.00501737583227 -0.013830707431 0.0147127899353 -109.936043842 5308.87052454
0.74959458863 0.026045444947 6.99807093486 -2.33336879613 -6.59754724671 0 -8.09062361908 0 -8.43907990315 8.09062361908 -90 -2.33336879613 1.49307637236 2.77018193197 147.386941085 -122.613058915 221.739951614 -0.00463294084207 -0.0130879900117 0.013883896618 -109.482659194 5422.8873522
0.74971820325 0.027259527289 7.31763044147 -2.38840051337 -6.91683249139 0 -8.45600692315 0 -8.82169484017 8.45600692315 -90 -2.38840051337 1.53917443176 2.84139675924 147.20181964 -122.79818036 206.387853197 -0.00408741040345 -0.0118262427353 0.0125127506034 -109.054226133 5520.3799559
0.74985439965 0.028358819214 7.61147500731 -2.43517366468 -7.21137143236 0 -8.79146947789 0 -9.16576016028 8.79146947789 -90 -2.43517366468 1.58009804553 2.90289510737 147.022728097 -122.977271903 193.507779686 -0.00357491015699 -0.0105784040133 0.0111661945526 -108.662438693 5601.11543738
0.7500025614 0.029361743753 7.87836307389 -2.47445312165 -7.4796492721 0 -9.09569202151 0 -9.47732627749 9.09569202151 -90 -2.47445312165 1.61604274942 2.955423935 146.852488677 -123.147511323 182.714999607 -0.00316251515255 -0.00955336443358 0.0100632568224 -108.308193621 5666.98340991
0.75016216527 0.030283646538 8.12244311911 -2.50768195387 -7.72561570945 0 -9.37350203622 0 -9.76142564234 9.37350203622 -90 -2.50768195387 1.64788632677 3.00066913451 146.690221548 -123.309778452 173.457645052 -0.00282663738877 -0.00870352447559 0.00915105551326 -107.985277833 5718.97214624
0.75033276474 0.031137303579 8.34716997421 -2.53597058731 -7.95258902678 0 -9.62891205679 0 -10.022241567 9.62891205679 -90 -2.53597058731 1.67632303001 3.03993780733 146.535019359 -123.464980641 165.391799688 -0.00255050119508 -0.00799447677837 0.00839149243493 -107.688590839 5759.45537811
0.75051397582 0.031933344405 8.55541934575 -2.56018050794 -8.16335028526 0 -9.86525635909 0 -10.2632490529 9.86525635909 -90 -2.56018050794 1.70190607382 3.0742517492 146.386000701 -123.613999299 158.322258322 -0.00232225042921 -0.00740177895358 0.00775754449097 -107.413950171 5792.17935825
0.75070546873 0.032680614812 8.65829582023 -2.57163073978 -8.2675753307 0 -9.98192389762 0 -10.4873351336 9.98192389762 -90 -2.57163073978 1.71434856692 3.09067560101 146.31104192 -123.68895808 154.925927997 -0.00221620499394 -0.00712491161822 0.00746163052842 -107.278314958 5807.09526046
0.75604838752 0.016208575395 4.36786442793 -1.65435384453 -4.04244394122 0 -5.04762794944 0 -5.0565874462 5.04762794944 -90 -1.65435384453 1.00518400822 1.93578964076 148.717169537 -121.282830463 383.491718569 -0.00530302451395 -0.0129580375973 0.0140011716427 -112.256633321 3658.17345739
0.75611314384 0.017484532067 4.53312179781 -1.70038590227 -4.20209289315 0 -5.23783609171 0 -5.45088269928 5.23783609171 -90 -1.70038590227 1.03574319855 1.99099995463 148.65518491 -121.34481509 368.094063544 -0.00522934068139 -0.0129172459997 0.0139357114122 -112.038755273 3775.51865039
0.75618773938 0.018759053422 4.86291475048 -1.78964288588 -4.52158933907 0 -5.61723002791 0 -5.84370675047 5.61723002791 -90 -1.78964288588 1.09564068884 2.09839371942 148.526203798 -121.473796202 338.581532568 -0.0050700408267 -0.0128037205278 0.0137711062664 -111.601082473 3996.65679545
0.75627213913 0.020031971705 5.19166938463 -1.87347024592 -4.84181163858 0 -5.99503453313 0 -6.23491445179 5.99503453313 -90 -1.87347024592 1.15322289455 2.19995942419 148.387058803 -121.612941197 311.591284409 -0.00489149769124 -0.0126357428218 0.0135495931875 -111.160221188 4192.46239365
0.75636630527 0.021303120472 5.73844317758 -2.02725176687 -5.36839521797 0 -6.63097637452 0 -6.62436292155 6.63097637452 -90 -2.02725176687 1.26258115654 2.3882906545 148.096142108 -121.903857892 281.427841097 -0.00495101566459 -0.0131074924412 0.0140114515702 -110.693686387 4628.52564393
0.75647019716 0.022572333974 6.09004985452 -2.11712167369 -5.71015379424 0 -7.03830167059 0 -7.01191147039 7.03830167059 -90 -2.11712167369 1.32814787635 2.4992489692 147.907038524 -122.092961476 262.463794382 -0.00490895007041 -0.0132317998696 0.0141131784555 -110.346835739 4863.71425192
0.75658377112 0.023839446556 6.42757038927 -2.18628824244 -6.04426361288 0 -7.42511228699 0 -7.39742154675 7.42511228699 -90 -2.18628824244 1.3808486741 2.58586033347 147.732310131 -122.267689869 242.179607096 -0.00468294723816 -0.0129391350778 0.0137606086273 -109.889831399 4998.71760638
0.75670698131 0.025104295959 6.75268854025 -2.24824228399 -6.36738029133 0 -7.79719634164 0 -7.78075783477 7.79719634164 -90 -2.24824228399 1.42981605032 2.66440441964 147.55338084 -122.44661916 224.552667494 -0.00433664596613 -0.0122710531321 0.0130149050282 -109.451486369 5115.78868914
0.75684176391 0.026285781406 7.06171182489 -2.30286102399 -6.67562692863 0 -8.15034597266 0 -8.13685901327 8.15034597266 -90 -2.30286102399 1.47471904403 2.73460346824 147.373462376 -122.626537624 209.319085715 -0.00383936956444 -0.0111195515287 0.0117637946904 -109.036148977 5215.84244638
0.75698863178 0.027360159327 7.34612230099 -2.34943664045 -6.96025320561 0 -8.4748833839 0 -8.45849240269 8.4748833839 -90 -2.34943664045 1.51463017829 2.79536301918 147.199234323 -122.800765677 196.481490902 -0.00336988334225 -0.00997590758363 0.0105297644391 -108.655156954 5298.86128782
0.75714709344 0.028344570977 7.60486765137 -2.38872326828 -7.21994026134 0 -8.7697014314 0 -8.75103899722 8.7697014314 -90 -2.38872326828 1.54976117006 2.84743071026 147.033309254 -122.966690746 185.682587941 -0.00299076458897 -0.00903407340127 0.00951629632274 -108.309554919 5367.00509788
0.75731672908 0.029253288911 7.84190205977 -2.42210986941 -7.45844378829 0 -9.03939543335 0 -9.018972619 9.03939543335 -90 -2.42210986941 1.58095164506 2.89242679274 146.874842279 -123.125157721 176.406110752 -0.00268125041764 -0.00825219915577 0.00867688976353 -107.99356791 5421.88836115
0.75749717779 0.030098191252 8.06051784308 -2.45066819119 -7.67891811944 0 -9.28778482898 0 -9.26601069685 9.28778482898 -90 -2.45066819119 1.60886670954 2.93161046903 146.722963999 -123.277036001 168.299007437 -0.00242604078626 -0.0075984889213 0.00797640820391 -107.702432513 5465.30621536
0.75768812644 0.030889156482 8.26345425031 -2.47523184883 -7.88400558492 0 -9.51804253257 0 -9.49523988041 9.51804253257 -90 -2.47523184883 1.63403694765 2.96596815773 146.576832789 -123.423167211 161.156915113 -0.00221428019923 -0.00705027318317 0.00738983593051 -107.432229981 5500.38104918
0.75788930389 0.031634402541 8.36371922072 -2.48687390837 -7.98543974644 0 -9.63172391479 0 -9.70922356905 9.63172391479 -90 -2.48687390837 1.64628416835 2.98243186159 146.503305061 -123.496694939 157.724094408 -0.00211582914866 -0.00679412332601 0.00711595752954 -107.298715116 5516.49661218
0.7624334612 0.0093851958313 2.49442626978 -1.00435830551 -2.28329297497 0 -2.87705187073 0 -2.8171841223 2.87705187073 -90 -1.00435830551 0.593758895769 1.16674128758 149.409170254 -120.590829746 537.577464925 -0.00400672076337 -0.00910881835843 0.00995109959565 -113.743384744 1672.4471488
0.76245530677 0.010601427611 2.65105289159 -1.06033358182 -2.42975765506 0 -3.05752807306 0 -3.18128368638 3.05752807306 -90 -1.06033358182 0.627770417995 1.23223518553 149.374162029 -120.625837971 521.420530459 -0.00415226315159 -0.00951368713152 0.010380381933 -113.585305078 1831.99293295
0.76248894011 0.011846465929 2.96000361144 -1.16855501766 -2.71956317603 0 -3.41343966319 0 -3.55347831726 3.41343966319 -90 -1.16855501766 0.693876487162 1.3590387374 149.300410556 -120.699589444 489.314482279 -0.00435163204998 -0.010124795521 0.0110204015969 -113.261422454 2142.00398153
0.76253275046 0.01309064651 3.27216226982 -1.27347225672 -3.01416816572 0 -3.77286719165 0 -3.92480932551 3.77286719165 -90 -1.27347225672 0.75869902593 1.48234851206 149.216504617 -120.783495383 456.795314362 -0.00443386337715 -0.0104912897068 0.0113898013256 -112.912378797 2442.7689367
0.76258671478 0.014333796592 3.58363629413 -1.3735846092 -3.30992112886 0 -4.13129678171 0 -4.29513332682 4.13129678171 -90 -1.3735846092 0.821375652847 1.60043572611 149.123202674 -120.876797326 424.957723446 -0.00445574590984 -0.0107334121776 0.0116215853978 -112.546084814 2725.15454385
0.76265080702 0.01557574316 4.06157731646 -1.5343419176 -3.76059541254 0 -4.68603641158 0 -4.66430846052 4.68603641158 -90 -1.5343419176 0.925440999041 1.79183394668 148.913321244 -121.086678756 390.514611036 -0.00473702662362 -0.0116068648005 0.0125363434219 -112.198064083 3223.42702134
0.76272499794 0.016816312332 4.37582253167 -1.63283884416 -4.05971756588 0 -5.04981514848 0 -5.03219418025 5.04981514848 -90 -1.63283884416 0.990097582602 1.90957524078 148.776142307 -121.223857693 366.79047179 -0.00481417840948 -0.0119607475643 0.0128933656846 -111.912929144 3511.88081491
0.76280925576 0.018055333831 4.69560413449 -1.7202570301 -4.36909963083 0 -5.41736564797 0 -5.39865260683 5.41736564797 -90 -1.7202570301 1.04826601714 2.01449048936 148.650603451 -121.349396549 338.42863136 -0.00468499342475 -0.011890833474 0.0127806075888 -111.494194861 3730.32558944
0.76290354544 0.019292635589 5.01433410704 -1.80252141493 -4.67910800418 0 -5.78335147115 0 -5.7635470136 5.78335147115 -90 -1.80252141493 1.10424346697 2.11387513288 148.515230257 -121.484769743 312.340335037 -0.00453570695895 -0.0117666400966 0.0126106728969 -111.071370693 3925.27897774
0.76300782908 0.020528046859 5.33191265284 -1.87972826424 -4.98953637903 0 -6.14763767045 0 -6.1267428384 6.14763767045 -90 -1.87972826424 1.15810129142 2.20785269846 148.370067986 -121.629932014 288.513973156 -0.0043740698835 -0.0116036547285 0.0124007937637 -110.64667453 4099.0880531
0.76312206585 0.02176139759 5.64823895418 -1.95199023593 -5.30017603326 0 -6.51009139295 0 -6.4881076034 6.51009139295 -90 -1.95199023593 1.20991535969 2.29656350626 148.215165413 -121.784834587 266.879921014 -0.00420633863571 -0.0114150871252 0.0121655125077 -110.221950781 4254.53594575
0.76324621184 0.022992517804 5.96321170374 -2.01943002392 -5.61081926898 0 -6.87058238535 0 -6.84751084651 6.87058238535 -90 -2.01943002392 1.25976311637 2.38015769258 148.050565001 -121.949434999 247.332198185 -0.00403742815646 -0.0112119782538 0.0119168494076 -109.798705178 4394.60520415
0.76338022088 0.024221240987 6.26695063111 -2.08023540438 -5.91158052915 0 -7.21779732656 0 -7.2048252 7.21779732656 -90 -2.08023540438 1.30621679742 2.45634652021 147.881851798 -122.118148202 230.176925747 -0.00376353853899 -0.0106866173819 0.0113300337765 -109.390443923 4517.10236817
0.76352552309 0.025372136707 6.55615642059 -2.13424611799 -6.19900933662 0 -7.54797476198 0 -7.537680965 7.54797476198 -90 -2.13424611799 1.34896542536 2.52483189553 147.711916537 -122.288083463 215.208004985 -0.00335901282272 -0.00974839520141 0.0103109318571 -109.001401427 4622.61870359
0.76368248647 0.026423127329 6.82322703119 -2.18073619816 -6.465323094 0 -7.85247707195 0 -7.83962182631 7.85247707195 -90 -2.18073619816 1.38715397795 2.58454503365 147.546787122 -122.453212878 202.470419754 -0.00297252422962 -0.00880683786909 0.00929500174427 -108.642096439 4711.01257247
0.76385072979 0.027390152272 7.06723008721 -2.22035543166 -6.70935088554 0 -8.13031359304 0 -8.11544666932 8.13031359304 -90 -2.22035543166 1.4209627075 2.63613050728 147.38882594 -122.61117406 191.663127522 -0.0026576869796 -0.00802638177698 0.00845497702113 -108.313843805 4784.53178695
0.7640299245 0.028286478112 7.29169923252 -2.25437434846 -6.93443098417 0 -8.38557865486 0 -8.36914356236 8.38557865486 -90 -2.25437434846 1.45114767069 2.68106471896 147.237282769 -122.762717231 182.342005135 -0.0023990471928 -0.00737600699685 0.0077563709729 -108.011748359 4845.78875139
0.7642197852 0.02912314134 7.49957382844 -2.28377900351 -7.14336379799 0 -8.62167330318 0 -8.60402482425 8.62167330318 -90 -2.28377900351 1.47830950519 2.72050068123 147.091386411 -122.908613589 174.153510962 -0.00218435868075 -0.00682969824027 0.00717052909354 -107.731728362 4895.92590176
0.76442006117 0.029909316519 7.69329732106 -2.30934066173 -7.33849274023 0 -8.84142128785 0 -8.8228394075 8.84142128785 -90 -2.30934066173 1.50292854762 2.75534576902 146.950392486 -123.049607514 166.87091499 -0.00200465585726 -0.00636814624103 0.00667623786836 -107.470399473 4936.79426497
0.76463053298 0.030652633171 7.78905303752 -2.32150887827 -7.4350477742 0 -8.94996950744 0 -9.02786927292 8.94996950744 -90 -2.32150887827 1.51492173324 2.77208656196 146.879404033 -123.120595967 163.362486977 -0.00192089097606 -0.00615210869357 0.00644501894654 -107.341112826 4955.72128678
0.76860689905 0.0089552919315 2.40303190392 -0.959924199441 -2.20295850714 0 -2.76847898541 0 -2.58825892017 2.76847898541 -90 -0.959924199441 0.56552047827 1.11412357152 149.501092841 -120.498907159 526.752847254 -0.00362156137802 -0.00830586042368 0.00906113508009 -113.536268525 1525.85841615
0.76863628997 0.010138041046 2.55519734262 -1.01421625488 -2.34526566185 0 -2.94362636268 0 -2.92909691272 2.94362636268 -90 -1.01421625488 0.598360700833 1.17757146404 149.46699953 -120.53300047 511.636736959 -0.00376182513751 -0.00869258400091 0.00947175251359 -113.386781314 1675.43128025
0.76867786575 0.011350159545 2.85528020419 -1.11925307937 -2.62673660557 0 -3.28895829267 0 -3.27789195954 3.28895829267 -90 -1.11925307937 0.662221687103 1.30048867189 149.395177817 -120.604822183 481.545477827 -0.00395870060747 -0.00928337691312 0.0100922891869 -113.08021274 1967.18195594
0.7687298314 0.01256133171 3.15856397661 -1.22129472948 -2.91286620275 0 -3.63781431953 0 -3.62583385582 3.63781431953 -90 -1.22129472948 0.724948116772 1.4202527853 149.313452459 -120.686547541 450.924289662 -0.00404949189979 -0.00965122534894 0.0104664450411 -112.748929529 2252.61831516
0.76879216412 0.013771380781 3.46115156993 -1.31883031253 -3.20000890899 0 -3.98568184368 0 -3.97278665689 3.98568184368 -90 -1.31883031253 0.785672934689 1.53512366283 149.222621071 -120.777378929 420.797239898 -0.00408530683174 -0.00990570929698 0.0107151635096 -112.400378655 2522.82672973
0.76886483805 0.014980129731 3.76294809252 -1.41176629231 -3.48804683764 0 -4.3324260972 0 -4.31861595036 4.3324260972 -90 -1.41176629231 0.84437925956 1.64501427484 149.122614357 -120.877385643 391.683782925 -0.0040751590267 -0.0100618840739 0.0108558878017 -112.037877827 2774.51991379
0.76894782404 0.016187400623 4.063859343 -1.50005987046 -3.7768407038 0 -4.67791435233 0 -4.66318861267 4.67791435233 -90 -1.50005987046 0.901073648521 1.74989357887 149.013402573 -120.986597427 363.97027354 -0.00402810881357 -0.0101356787658 0.0109068526563 -111.664478806 3006.08971821
0.76904109039 0.017393019189 4.36379061196 -1.58370975213 -4.06623416424 0 -5.02201504765 0 -5.00637411998 5.02201504765 -90 -1.58370975213 0.955780883413 1.84977591292 148.894986916 -121.105013084 337.912263825 -0.00395260899869 -0.0101425722115 0.0108856137669 -111.282928552 3217.24505693
0.76914460199 0.01859680931 4.66264739441 -1.66274787775 -4.35605944091 0 -5.36459896856 0 -5.34804304285 5.36459896856 -90 -1.66274787775 1.00853952765 1.94471160741 148.767390105 -121.232609895 313.652553586 -0.00385614761592 -0.0100968034587 0.010808187367 -110.895651067 3408.66360478
0.76925832085 0.019798596207 4.96033448151 -1.73723149106 -4.64614066438 0 -5.70553843203 0 -5.6880680301 5.70553843203 -90 -1.73723149106 1.05939776765 2.03477802818 148.630647989 -121.369352011 291.241128965 -0.00374506049905 -0.0100108548623 0.0106885075633 -110.504749504 3581.63423559
0.76938220598 0.020998205786 5.25675627155 -1.80723663766 -4.93629759124 0 -6.04470775386 0 -6.02632371651 6.04470775386 -90 -1.80723663766 1.10841016262 2.12007231168 148.484801821 -121.515198179 270.662621668 -0.00362457938231 -0.00989545758569 0.0105384563328 -110.112020444 3737.85823088
0.76951621322 0.022195464018 5.55181718498 -1.87285269195 -5.226348704 0 -6.38198373591 0 -6.3626866515 6.38198373591 -90 -1.87285269195 1.15563503191 2.20070531041 148.32989122 -121.67010878 251.885172652 -0.00349930673086 -0.00976074625868 0.0103691191294 -109.718975908 3879.70465129
0.76966029613 0.023390200393 5.83667672008 -1.93236701789 -5.50748305206 0 -6.70725382813 0 -6.69703634948 6.70725382813 -90 -1.93236701789 1.19977077607 2.27453981782 148.170931468 -121.829068532 235.249576968 -0.00328265253624 -0.00934930011258 0.00990890119969 -109.337834121 4004.85319896
0.76981544598 0.024512315548 6.10837878684 -1.98559162734 -5.7766219193 0 -7.017147321 0 -7.00936339278 7.017147321 -90 -1.98559162734 1.2405254017 2.34126471523 148.010524056 -121.989475944 220.598577709 -0.00295297116581 -0.00858466534105 0.00907839747184 -108.972667827 4113.56078803
0.76998190541 0.025541297451 6.36012387521 -2.03179699618 -6.0268277894 0 -7.30393926958 0 -7.29389233005 7.30393926958 -90 -2.03179699618 1.27711148018 2.39984567727 147.854100974 -122.145899026 208.011540103 -0.00263418683973 -0.00780891573765 0.00824127694143 -108.633205595 4205.49533942
0.77015938896 0.026491955135 6.59108333653 -2.07154205494 -6.257059755 0 -7.56674186176 0 -7.55491172787 7.56674186176 -90 -2.07154205494 1.30968210677 2.45083729128 147.703798857 -122.296201143 197.236377418 -0.00237218397923 -0.0071615146257 0.00754419876278 -108.320949812 4282.76483449
0.77034764733 0.027376609214 6.8044207036 -2.10598623159 -6.47029279873 0 -7.80921065423 0 -7.79598385695 7.80921065423 -90 -2.10598623159 1.33891785551 2.49558244978 147.558958059 -122.441041941 187.88602795 -0.00215540908758 -0.00661932065706 0.00696142802599 -108.031758815 4348.2882423
0.77054646064 0.028205504902 7.00276508176 -2.13603446083 -6.66901935669 0 -8.03438036243 0 -8.02006595509 8.03438036243 -90 -2.13603446083 1.36536100573 2.53513499401 147.418900982 -122.581099018 179.648646192 -0.00197447291673 -0.00616237357318 0.00647098211446 -107.762143985 4403.65355238
0.77075563237 0.028987155049 7.18830016554 -2.16239799466 -6.85532290435 0 -8.24476910834 0 -8.22961098961 8.24476910834 -90 -2.16239799466 1.38944620399 2.57032760615 147.282972914 -122.717027086 172.273257076 -0.00182187610183 -0.00577399413779 0.00605461906744 -107.509188457 4449.64197178
0.77097498789 0.029728636096 7.2800476953 -2.1749932799 -6.94755289804 0 -8.34874485089 0 -8.42665425369 8.34874485089 -90 -2.1749932799 1.40119195284 2.5872737058 147.214490445 -122.785509555 168.700904401 -0.00175043098723 -0.00559147944546 0.00585906612172 -107.383897527 4470.8097597
0.77443760933 0.008549259143 2.22159193758 -0.872929017226 -2.04289315898 0 -2.55347210978 0 -2.38515672881 2.55347210978 -90 -0.872929017226 0.510578950795 1.01128534185 149.680371723 -120.319628277 505.464921731 -0.00290942106799 -0.006805193093 0.00740107877203 -113.129791762 1251.06990111
0.77447394768 0.0097003965842 2.36495341556 -0.923903648597 -2.17699842674 0 -2.71812738044 0 -2.70530476612 2.71812738044 -90 -0.923903648597 0.541128953709 1.07071063764 149.648149017 -120.351850983 492.351408698 -0.00303840766617 -0.00715525274756 0.00777370400321 -112.997034737 1381.32316675
0.77452285459 0.010881436163 2.6474862525 -1.02262862202 -2.44198930904 0 -3.04256810968 0 -3.03328391989 3.04256810968 -90 -1.02262862202 0.600578800637 1.18594598498 149.580325323 -120.419674677 466.135663213 -0.00322752775681 -0.00770225341078 0.00835120719678 -112.724067188 1637.37162448
0.77458235188 0.01206144761 2.93314558771 -1.11891957748 -2.71131739033 0 -3.37047402778 0 -3.36042160089 3.37047402778 -90 -1.11891957748 0.659156637455 1.29864286211 149.503158711 -120.496841289 439.179830017 -0.00333091073313 -0.00806638289282 0.00872711656666 -112.427233882 1892.21005591
0.77465241697 0.013240250406 3.21808857424 -1.21127955796 -2.98140197057 0 -3.69740977071 0 -3.68658834784 3.69740977071 -90 -1.21127955796 0.716007800139 1.40707905079 149.417459423 -120.582540577 412.378968851 -0.00338952959164 -0.00833800864137 0.00900068792356 -112.11321298 2137.56954386
0.77473302414 0.014417663741 3.50222187805 -1.29959633899 -3.25214553399 0 -4.02324711398 0 -4.01165624908 4.02324711398 -90 -1.29959633899 0.771101579993 1.51114393392 149.323170387 -120.676829613 386.195299281 -0.00340945257736 -0.0085271764679 0.0091835825247 -111.784888603 2369.97587265
0.77482414432 0.015593505863 3.78545335684 -1.38380248397 -3.52343181029 0 -4.34785984857 0 -4.33549866717 4.34785984857 -90 -1.38380248397 0.824428038273 1.61077635474 149.22026559 -120.77973441 360.990097096 -0.00339706234416 -0.0086450323345 0.00928857799854 -111.44495797 2587.27705615
0.77492574584 0.016767598746 4.06769091372 -1.46386848438 -3.79512878626 0 -4.67112289782 0 -4.65799150766 4.67112289782 -90 -1.46386848438 0.875994111554 1.70595672764 149.108744369 -120.891255631 337.025766709 -0.00335859933693 -0.00870294049939 0.00932857962312 -111.095893878 2788.45329807
0.77503779355 0.017939762463 4.34884319951 -1.53979644006 -4.06709325965 0 -4.99291346237 0 -4.97901172114 4.99291346237 -90 -1.53979644006 0.925820202722 1.79669985611 148.988624545 -121.011375455 314.471006685 -0.00329981273152 -0.00871174694188 0.00931580896355 -110.739921454 2973.36811062
0.77516024935 0.019109818434 4.62881868902 -1.61161365487 -4.33917341226 0 -5.31311020669 0 -5.29843825948 5.31311020669 -90 -1.61161365487 0.973936794433 1.88304768564 148.859936353 -121.140063647 293.415906219 -0.00322578401668 -0.00868136381032 0.00926135609405 -110.379011842 3142.52730646
0.77529307207 0.020277588766 4.90752593742 -1.6793672051 -4.61121200373 0 -5.63159370904 0 -5.61615197763 5.63159370904 -90 -1.6793672051 1.02038170531 1.96506321919 148.722716416 -121.277283584 273.886064385 -0.00314082624974 -0.00862047248865 0.00917487053141 -110.014885963 3296.8502039
0.77543621729 0.021442895617 5.18487392606 -1.74311927088 -4.88304911858 0 -5.9482469337 0 -5.93203555443 5.9482469337 -90 -1.74311927088 1.06519781512 2.04282532727 148.577002537 -121.422997463 255.897297335 -0.00304896556146 -0.00853779424616 0.00906592483956 -109.649026836 3438.03811535
0.7755896383 0.022605564716 5.45293935184 -1.80125921983 -5.14681646624 0 -6.25401549743 0 -6.24597451874 6.25401549743 -90 -1.80125921983 1.10719903119 2.11434438795 148.427290628 -121.572709372 239.811777657 -0.00287764875247 -0.00821721333829 0.00870656094427 -109.292471996 3563.66024977
0.77575395219 0.023700524433 5.70906820341 -1.85357949921 -5.39976166481 0 -6.54587321407 0 -6.54004447793 6.54587321407 -90 -1.85357949921 1.14611154925 2.17930247578 148.275921217 -121.724078783 225.52116844 -0.00260857334043 -0.00759415281401 0.00802971709167 -108.949102102 3673.76068645
0.77592929489 0.024708738359 5.94716966613 -1.89935827107 -5.63569073937 0 -6.81690176246 0 -6.80907130192 6.81690176246 -90 -1.89935827107 1.18121102309 2.23670618218 148.127781412 -121.872218588 213.128029601 -0.00234521479265 -0.00695479065137 0.00733958664984 -108.627888178 3767.75923355
0.77611546276 0.025643948751 6.16650554305 -1.93907533161 -5.85367750906 0 -7.06630462325 0 -7.05689266823 7.06630462325 -90 -1.93907533161 1.21262711419 2.2870315549 147.984802819 -122.015197181 202.424484927 -0.00212683400055 -0.00641752571549 0.00676079455588 -108.33045513 3847.54664016
0.77631227411 0.026517583741 6.36991119956 -1.97378629749 -6.05637795562 0 -7.29735009381 0 -7.28669471084 7.29735009381 -90 -1.97378629749 1.24097213819 2.33149784231 147.84641017 -122.15358983 193.066407896 -0.00194472006248 -0.00596486949413 0.00627389983954 -108.05330881 3915.89542341
0.77651956503 0.027339142158 6.55974094662 -2.00431962576 -6.24601421616 0 -7.51274967258 0 -7.50112103515 7.51274967258 -90 -2.00431962576 1.26673545642 2.37106643963 147.712013102 -122.287986898 184.789866564 -0.00179180707058 -0.0055819153849 0.00586246702253 -107.79347815 3974.84485397
0.77673718513 0.028116512787 6.73794862867 -2.03132949038 -6.42444170448 0 -7.71475190436 0 -7.70236320509 7.71475190436 -90 -2.03132949038 1.29031019988 2.4064999802 147.581040244 -122.418959756 177.358358356 -0.00166211190161 -0.00525521831077 0.00551181182721 -107.548458886 4025.12155969
0.77696499804 0.028856250526 6.82610927599 -2.04427312609 -6.51281111751 0 -7.81462957531 0 -7.89223867304 7.81462957531 -90 -2.04427312609 1.3018184578 2.42359647654 147.515011645 -122.484988355 173.75308244 -0.00160121605455 -0.00510137305197 0.00534676574198 -107.426961401 4048.47582771
0.77996421977 0.0081644118484 2.05868535963 -0.797104810345 -1.8980974462 0 -2.36142392356 0 -2.20364633056 2.36142392356 -90 -0.797104810345 0.463326477362 0.921980928736 149.835434894 -120.164565106 486.715522559 -0.0023653689149 -0.0056299831461 0.00610671666252 -112.773737567 1034.222325
0.78000689072 0.009285604278 2.19412455391 -0.845092016982 -2.0248320909 0 -2.51668339012 0 -2.50526101679 2.51668339012 -90 -0.845092016982 0.491851299219 0.977803668767 149.805100708 -120.194899292 475.269432231 -0.00248257472372 -0.00594540135571 0.00644293916533 -112.655157442 1147.90462352
0.78006249979 0.010437205899 2.46087261638 -0.938113281999 -2.27503130509 0 -2.82242185134 0 -2.8145918825 2.82242185134 -90 -0.938113281999 0.547390546251 1.08613782042 149.741278267 -120.258721733 452.294173656 -0.00265970728378 -0.00644664036136 0.00697379219149 -112.410746682 1372.87152856
0.78012888903 0.011587704442 2.73068538838 -1.02916418683 -2.52930434912 0 -3.13157318663 0 -3.12309434764 3.13157318663 -90 -1.02916418683 0.602268837515 1.19243862365 149.668621185 -120.331378815 428.441542498 -0.00276693286504 -0.00679660067046 0.00733827640045 -112.143397445 1600.11926961
0.78020603608 0.012736915836 2.99977122832 -1.11676732042 -2.78412661217 0 -3.43977321529 0 -3.43064464057 3.43977321529 -90 -1.11676732042 0.655646603115 1.2950080493 149.587943358 -120.412056642 404.499089364 -0.00283765867869 -0.00707086282472 0.00761905745516 -111.859138121 1822.11732407
0.78029391532 0.013884655697 3.26803845724 -1.20079992807 -3.03941492897 0 -3.74689946514 0 -3.73712056834 3.74689946514 -90 -1.20079992807 0.707484536172 1.39372167005 149.499198774 -120.500801226 380.875467549 -0.00287595867267 -0.00727607514051 0.00782387695908 -111.560486255 2035.4465732
0.78039249773 0.015030738671 3.53539690314 -1.28117856057 -3.295069902 0 -4.05283146352 0 -4.04240120674 4.05283146352 -90 -1.28117856057 0.757761561519 1.48849846623 149.402366269 -120.597633731 357.904715784 -0.0028863364633 -0.00742004161914 0.00796169598519 -111.249829446 2237.72530857
0.78050175163 0.016174983184 3.80175680654 -1.35785396667 -3.55097792598 0 -4.35744984459 0 -4.34636812716 4.35744984459 -90 -1.35785396667 0.80647191861 1.57929494425 149.297445587 -120.702554413 335.844577191 -0.00287338342835 -0.00751107370242 0.00804196517496 -110.929390723 2427.50894398
0.78062164182 0.01731720571 4.06702952606 -1.43080631035 -3.80701488675 0 -4.66063745889 0 -4.64890390265 4.66063745889 -90 -1.43080631035 0.853622572144 1.66609969669 149.184452332 -120.815547668 314.875647773 -0.00284148442391 -0.00755738527986 0.00807395439933 -110.601203732 2604.12550086
0.78075213005 0.018457224085 4.33112662294 -1.50004003724 -4.06304808507 0 -4.9622785626 0 -4.9498930429 4.9622785626 -90 -1.50004003724 0.899230477528 1.74892758302 149.063413605 -120.936586395 295.112972141 -0.00279466779637 -0.0075667734229 0.00806640241 -110.26710177 2767.5199315
0.78089317497 0.01959485683 4.59396008975 -1.56557940374 -4.31893894521 0 -5.26225925071 0 -5.24922188518 5.26225925071 -90 -1.56557940374 0.943320305506 1.82781471221 148.934363315 -121.065636685 276.613826634 -0.00273647574331 -0.00754629369295 0.00802716955605 -109.928714835 2918.07126284
0.78104473191 0.020729922503 4.8554426563 -1.62746449619 -4.57454543354 0 -5.56046791515 0 -5.54677850947 5.56046791515 -90 -1.62746449619 0.985922481602 1.90281400606 148.797337998 -121.202662002 259.419910653 -0.00267025180598 -0.00750304875982 0.00796408001449 -109.587474472 3056.82060634
0.78120675384 0.021862243288 5.10846600935 -1.6841872666 -4.82283237252 0 -5.84878930739 0 -5.84245374657 5.84878930739 -90 -1.6841872666 1.02595693487 1.97207869493 148.656360617 -121.343639383 243.904360008 -0.00253498850582 -0.00725507824795 0.00768523508835 -109.253336182 3181.27180862
0.78137954494 0.022931504717 5.35064405995 -1.73552733566 -5.0613357942 0 -6.12450316251 0 -6.12017807403 6.12450316251 -90 -1.73552733566 1.06316736831 2.03528921768 148.513535604 -121.486464396 230.007716741 -0.00231520537656 -0.00674785268493 0.00713400836521 -108.929969865 3291.36183868
0.781563152 0.023920065487 5.57651642137 -1.78077922207 -5.28452059887 0 -6.38140899835 0 -6.37531202811 6.38140899835 -90 -1.78077922207 1.09688839948 2.09149778806 148.373251604 -121.626748396 217.845164215 -0.00209741762257 -0.00622106428541 0.0065651413925 -108.625623462 3386.2392714
0.78175743989 0.024840657587 5.78542437596 -1.82035374256 -5.49156227969 0 -6.61879173396 0 -6.61129194845 6.61879173396 -90 -1.82035374256 1.12722945427 2.14111188175 148.2372531 -121.7627469 207.248310509 -0.00191520968254 -0.00577529957495 0.00608459727872 -108.341993269 3467.54059195