TITLE = "Electromagnetic Field"
VARIABLES = X Y E ER EI EvR EvI EvR' EvI' Ev EvPhase EpR EpI Ep EpPhase EpToEvPhaseShift elConductivity Jr Ji J Jphase QJ
ZONE N=246, E=214, F=FEPOINT, ET=QUADRILATERAL
0.486 0.13000748637 256.884257857 -21.9076094783 -255.948390465 0 -291.709315212 0 -305.604933401 291.709315212 -90 -21.9076094783 35.7609247467 41.9378956528 121.492179694 -148.507820306 2.89832046952e-96 -2.59484962731e-99 -3.03158400859e-98 3.04266890197e-98 -94.8922425501 9.56293910987e-92
0.486 0.12487646764 255.03795337 -22.2027485095 -254.069254517 0 -290.244587191 0 -303.180883464 290.244587191 -90 -22.2027485095 36.175332674 42.445470254 121.53911878 -148.46088122 2.89832417877e-96 -2.62912157623e-99 -3.00855778368e-98 3.02002849661e-98 -94.9950531712 9.426475802e-92
0.486 0.11974544891 250.946729395 -22.8072370065 -249.907633477 0 -286.92567657 0 -299.940325112 286.92567657 -90 -22.8072370065 37.0180430922 43.4799617334 121.637076575 -148.362923425 2.89833197606e-96 -2.69931790241e-99 -2.95776314997e-98 2.97006115022e-98 -95.2155732243 9.12674556855e-92
0.486 0.11461443018 246.043263767 -23.4414363096 -244.923353759 0 -282.812884941 0 -295.841902909 282.812884941 -90 -23.4414363096 37.889531182 44.5546783909 121.743504136 -148.256495864 2.89834125413e-96 -2.77297086707e-99 -2.89730364539e-98 2.91055137642e-98 -95.4685468307 8.77391019487e-92
0.486 0.10948341146 240.426125388 -24.0950267855 -239.214840252 0 -277.989242558 0 -290.851399052 277.989242558 -90 -24.0950267855 38.7744023063 45.6511424031 121.856747556 -148.143252444 2.89835241404e-96 -2.79173686382e-99 -2.77317628451e-98 2.78720287643e-98 -95.7536660292 8.37824384343e-92
0.486 0.10456117621 234.548519079 -24.7271283308 -233.240567349 0 -272.858344431 0 -285.201441797 272.858344431 -90 -24.7271283308 39.617777082 46.7011918983 121.969385881 -148.030614119 2.89836513415e-96 -2.59023006169e-99 -2.44897023643e-98 2.46263936441e-98 -96.0536938552 7.97374505435e-92
0.486 0.10045931351 228.627655051 -25.3278982384 -227.219606245 0 -267.627959155 0 -279.836632708 267.627959155 -90 -25.3278982384 40.40835291 47.6900328549 122.078939079 -147.921060921 2.89837965259e-96 -2.21363143999e-99 -1.99005499856e-98 2.00233535798e-98 -96.3622702165 7.57615060062e-92
0.486 0.097041094594 223.232148378 -25.8531041277 -221.729379772 0 -262.820429894 0 -274.906371465 262.820429894 -90 -25.8531041277 41.0910501227 48.5474908349 122.176352727 -147.823647273 2.89839489988e-96 -1.88564929383e-99 -1.62025592486e-98 1.6311962296e-98 -96.652091838 7.22265580026e-92
0.486 0.094192578828 218.410656309 -26.3099537797 -216.819664108 0 -258.498394377 0 -270.478202929 258.498394377 -90 -26.3099537797 41.6787302697 49.2882479974 122.262147213 -147.737852787 2.89841081222e-96 -1.60185867623e-99 -1.32226354735e-98 1.33193426734e-98 -96.9200280348 6.91390406123e-92
0.486 0.09181881569 214.163635658 -26.7054669843 -212.491638092 0 -254.674679912 0 -266.566644707 254.674679912 -90 -26.7054669843 42.1830418204 49.9258639318 122.337101262 -147.662898738 2.8984270484e-96 -1.35765615816e-99 -1.0818227281e-98 1.09031068066e-98 -97.1643007336 6.64752920081e-92
0.486 0.089840679742 210.462643628 -27.0463924666 -208.717211124 0 -251.331736339 0 -263.153945755 251.331736339 -90 -27.0463924666 42.6145252141 50.472822355 122.402145502 -147.597854498 2.89844334856e-96 -1.14850487922e-99 -8.87408125251e-99 8.94810779753e-99 -97.3842988151 6.41967729271e-92
0.486 0.088192233118 207.263587067 -27.3391187979 -205.452326157 0 -248.435009514 0 -260.20431711 248.435009514 -90 -27.3391187979 42.9826833579 50.940543843 122.458276559 -147.541723441 2.89845919879e-96 -9.70090547242e-100 -7.29803028802e-99 7.36223169927e-99 -97.580347307 6.22593912603e-92
0.486 0.086818527598 204.515437077 -27.5896003475 -202.645740469 0 -245.941777947 0 -257.673304939 245.941777947 -90 -27.5896003475 43.2960374788 51.3393932363 122.506494426 -147.493505574 2.8984738919e-96 -8.18414808599e-100 -6.01680402203e-99 6.07221572369e-99 -97.7534689686 6.06188788573e-92
0.486 0.085673772999 202.165721543 -27.8033054777 -200.244586111 0 -243.806764598 0 -255.513727193 243.806764598 -90 -27.8033054777 43.5621784868 51.6786946208 122.547760262 -147.452239738 2.89848590916e-96 -6.89843411057e-100 -4.97229254799e-99 5.01992168793e-99 -97.9051629939 5.92336355104e-92
0.486 0.084719810832 200.163809676 -27.9851884597 -198.197716901 0 -241.985537121 0 -253.679262617 241.985537121 -90 -27.9851884597 43.7878202203 51.9667603754 122.582970378 -147.417029622 2.89849240552e-96 -5.81123089892e-100 -4.11840763224e-99 4.1592071854e-99 -98.037215149 5.80660466045e-92
0.486 0.08392484236 198.462726767 -28.1396833 -196.457576075 0 -240.436433793 0 -252.126479647 240.436433793 -90 -28.1396833 43.9788577186 52.2109361775 122.612942224 -147.387057776 2.8984882531e-96 -4.89377004774e-100 -3.41853302568e-99 3.45338495369e-99 -98.1515453374 5.7082901167e-92
0.486 0.083262368633 197.020017352 -28.270715782 -194.981101265 0 -239.121532213 0 -250.81585494 239.121532213 -90 -28.270715782 44.1404309472 52.4176604491 122.638408843 -147.361591157 2.89846556493e-96 -4.120865279e-100 -2.84349728311e-99 2.87320328093e-99 -98.2500926034 5.62553282128e-92
0.486 0.082710307195 195.79801141 -28.3817292191 -193.73002163 0 -238.007014192 0 -249.712156103 238.007014192 -90 -28.3817292191 44.276992562 52.5925346874 122.660019012 -147.339980988 2.89841370076e-96 -3.47064782868e-100 -2.36998083505e-99 2.39525899884e-99 -98.3347338775 5.55584904859e-92
0.486 0.082250255995 195.193428501 -28.4366626609 -193.110928605 0 -237.455410962 0 -248.784438882 237.455410962 -90 -28.4366626609 44.3444823563 52.6789986498 122.670721682 -147.329278318 2.89837498942e-96 -3.1502668423e-100 -2.13931909846e-99 2.16238942303e-99 -98.3769207387 5.52147312314e-92
0.4939620823 0.082167228399 184.17812783 -27.0604859915 -182.179218361 0 -224.079739887 0 -225.884517279 224.079739887 -90 -27.0604859915 41.9005215259 49.8793082507 122.863733234 -147.136266766 2.89795858723e-96 -3.50396623151e-100 -2.35649800266e-99 2.38240800581e-99 -98.4522481789 4.92865222285e-92
0.4939623259 0.082667262808 184.811245339 -27.0124951619 -182.826313899 0 -224.672570058 0 -226.816156813 224.672570058 -90 -27.0124951619 41.8462561589 49.8076861752 122.851159494 -147.148840506 2.89808437498e-96 -3.83820427737e-100 -2.596224052e-99 2.62444456653e-99 -98.4080915632 4.96278379134e-92
0.49396261412 0.083258889669 186.07935643 -26.9142679227 -184.12247525 0 -225.856601839 0 -227.908882229 225.856601839 -90 -26.9142679227 41.7341265893 49.6602061711 122.825999871 -147.174000129 2.89826164342e-96 -4.51859145241e-100 -3.08982871227e-99 3.12269683095e-99 -98.3197154007 5.03130846345e-92
0.49396295576 0.083960172342 187.547754185 -26.7968454217 -185.62333023 0 -227.221514479 0 -229.190669907 227.221514479 -90 -26.7968454217 41.5981842491 49.4823213433 122.796920707 -147.203079293 2.89835574138e-96 -5.32663850678e-100 -3.68872283724e-99 3.72698716954e-99 -98.2178073914 5.11108598209e-92
0.49396336138 0.084792780606 189.252559902 -26.6572090928 -187.365545618 0 -228.800228018 0 -230.693449177 228.800228018 -90 -26.6572090928 41.4346823999 49.2692525634 122.763228729 -147.236771271 2.89839796308e-96 -6.28518036921e-100 -4.41706888066e-99 4.46156634733e-99 -98.1005447287 5.20440986368e-92
0.49396384365 0.085782711773 191.234427775 -26.4919038875 -189.39032686 0 -230.629589736 0 -232.453171578 230.629589736 -90 -26.4919038875 41.2392628758 49.0154725101 122.724144009 -147.275855991 2.89841205357e-96 -7.42057556148e-100 -5.30508656656e-99 5.35673983413e-99 -97.9660453046 5.31393092724e-92
0.49396441775 0.086961155996 193.538342587 -26.2970110798 -191.743188313 0 -232.750075282 0 -234.509572138 232.750075282 -90 -26.2970110798 41.006886969 48.7146335021 122.678800644 -147.321199356 2.89841298276e-96 -8.76301224207e-100 -6.39069693017e-99 6.45050598488e-99 -97.8124443049 5.44268527656e-92
0.49396510192 0.088365534612 196.21289618 -26.0681325084 -194.473192558 0 -235.204959867 0 -236.9054178 235.204959867 -90 -26.0681325084 40.7317673092 48.3595024521 122.626253444 -147.373746556 2.89840841795e-96 -1.03467441305e-99 -7.72161920208e-99 7.79064538594e-99 -97.6380024987 5.59410640914e-92
0.49396591803 0.090040746105 199.308725385 -25.800389828 -197.631341194 0 -238.038642082 0 -239.684936991 238.038642082 -90 -25.800389828 40.4073008881 47.9419049416 122.565493464 -147.434506536 2.89840164173e-96 -1.22102048874e-99 -9.35801705048e-99 9.43735804568e-99 -97.4412498787 5.77199961042e-92
0.49396689232 0.092040661188 202.875647382 -25.4884416506 -201.267654344 0 -241.293656159 0 -242.890979681 241.293656159 -90 -25.4884416506 40.0260018156 47.4526786639 122.495475879 -147.504524121 2.89839368672e-96 -1.43959219778e-99 -1.13757709467e-98 1.14665256901e-98 -97.2211649658 5.9804411825e-92
0.4939680563 0.09442991681 206.957830303 -25.1265198056 -205.426280117 0 -245.005710167 0 -246.560261622 245.005710167 -90 -25.1265198056 39.5794300499 46.8816335192 122.415164256 -147.584835744 2.89838495925e-96 -1.6950131306e-99 -1.38704029292e-98 1.39736264959e-98 -96.9773846178 6.22354896238e-92
0.49396944772 0.097286068811 211.586086132 -24.7084831975 -210.137727316 0 -249.195836956 0 -250.715794539 249.195836956 -90 -24.7084831975 39.0581096394 46.2175117673 122.323595397 -147.676404603 2.89837552268e-96 -1.99219490209e-99 -1.69615361901e-98 1.70781862863e-98 -96.710431514 6.50503800691e-92
0.49397111194 0.1007021749 216.766094166 -24.2278837783 -215.407038779 0 -253.858466623 0 -255.355313754 253.858466623 -90 -24.2278837783 38.451427844 45.4479375354 122.219967984 -147.780032016 2.89836562077e-96 -2.33619243235e-99 -2.07975038959e-98 2.0928382843e-98 -96.4219370776 6.82744075653e-92
0.49397310335 0.10478989391 222.461146066 -23.6780330648 -221.196508193 0 -258.944013517 0 -260.434266753 258.944013517 -90 -23.6780330648 37.747505324 44.5593406045 122.103754958 -147.896245042 2.89835529948e-96 -2.73197082106e-99 -2.55591815513e-98 2.57048799991e-98 -96.1148272613 7.1908210553e-92
0.49397548722 0.10968320451 228.134385473 -23.098411837 -226.961100554 0 -263.954682891 0 -265.841915501 263.954682891 -90 -23.098411837 36.9935823373 43.6127503666 121.984520535 -148.015479465 2.89834557405e-96 -2.94586379632e-99 -2.89364192975e-98 2.90861011031e-98 -95.8158925439 7.56186546342e-92
0.49397797169 0.11478300257 233.586191312 -22.4979127832 -232.499448797 0 -268.6988906 0 -270.71033108 268.6988906 -90 -22.4979127832 36.1994418035 42.6211735146 121.864843685 -148.135156315 2.89833648395e-96 -2.92987270635e-99 -3.02506285664e-98 3.03922810205e-98 -95.531353653 7.92686260142e-92
0.49398045712 0.11988480185 238.391553763 -21.9142076043 -237.381554523 0 -272.796232068 0 -274.816498939 272.796232068 -90 -21.9142076043 35.4146775443 41.646600539 121.752400166 -148.247599834 2.89832857281e-96 -2.85633276048e-99 -3.09112695306e-98 3.10430388389e-98 -95.2782531296 8.25554073569e-92
0.49398294356 0.12498865157 242.45448691 -21.3568375819 -241.511520872 0 -276.164875375 0 -278.185574872 276.164875375 -90 -21.3568375819 34.6533545028 40.7059682855 121.648867482 -148.351132518 2.89832169811e-96 -2.78612257495e-99 -3.14755914224e-98 3.15987270515e-98 -95.056997297 8.53849886589e-92
0.49398543102 0.13009460206 244.303227038 -21.0844776152 -243.391564485 0 -277.66996086 0 -280.848207362 277.66996086 -90 -21.0844776152 34.2783963755 40.2438618689 121.599249876 -148.400750124 2.89831833599e-96 -2.75181652912e-99 -3.17340389698e-98 3.18531425891e-98 -94.9536991532 8.6683890951e-92
0.50351694648 0.081595934161 155.074761686 -23.496787838 -153.284319724 0 -188.837108313 0 -200.965446161 188.837108313 -90 -23.496787838 35.552788589 42.6157226286 123.460659698 -146.539340302 2.70107162929e-95 -3.52058213056e-99 -2.29669706616e-98 2.32352370315e-98 -98.7149707111 3.24779306792e-91
0.50351744611 0.082067586263 161.538988974 -24.2111940667 -159.714147134 0 -196.561838265 0 -201.773560778 196.561838265 -90 -24.2111940667 36.8476911306 44.0903479707 123.318019743 -146.681980257 1.0789293382e-95 -1.42742245287e-99 -9.33981951691e-99 9.44827270106e-99 -98.6241930186 1.3281989902e-91
0.50351802662 0.082615604627 165.300388755 -24.515702568 -163.472175629 0 -200.905923064 0 -202.705548807 200.905923064 -90 -24.515702568 37.4337474355 44.7474256 123.233230567 -146.766769433 2.89747007007e-96 -4.44256192343e-100 -2.96099139214e-99 2.99413569797e-99 -98.5327530578 3.97263528417e-92
0.50351870363 0.083254714496 166.534363812 -24.4277024065 -164.732913307 0 -202.075759091 0 -203.782960836 202.075759091 -90 -24.4277024065 37.3428457839 44.6231653456 123.202465492 -146.797534508 2.89798222567e-96 -5.16280909345e-100 -3.48058344248e-99 3.51866857509e-99 -98.4383261195 4.03272726614e-92
0.50351949584 0.084002572726 167.94664193 -24.3238055114 -166.17573142 0 -203.409231894 0 -205.030684163 203.409231894 -90 -24.3238055114 37.2335004732 44.4747822144 123.167355629 -146.832644371 2.89827478265e-96 -6.01620591642e-100 -4.10951827275e-99 4.1533263576e-99 -98.3309418371 4.10169493506e-92
0.50352042567 0.084880353779 169.568617611 -24.2015418874 -167.832479736 0 -204.935308191 0 -206.477199028 204.935308191 -90 -24.2015418874 37.1028284551 44.2985180645 123.127158897 -146.872841103 2.89842028174e-96 -7.0267745501e-100 -4.87287927317e-99 4.92328731028e-99 -98.208908166 4.18139726956e-92
0.50352152004 0.085913452858 171.435896535 -24.0581033948 -169.739223704 0 -206.68672263 0 -208.15470536 206.68672263 -90 -24.0581033948 36.9474989256 44.0900574381 123.081038976 -146.918961024 2.89848193984e-96 -8.22236900411e-100 -5.8020339485e-99 5.86001298162e-99 -98.0704762407 4.27398811178e-92
0.50352281119 0.087132329632 173.588205102 -23.8903173189 -171.936132389 0 -208.699800433 0 -210.099014505 208.699800433 -90 -23.8903173189 36.7636680444 43.8444591787 123.028067187 -146.971932813 2.89850348407e-96 -9.63504634601e-100 -6.9363231366e-99 7.00293183411e-99 -97.913908861 4.38193159662e-92
0.50352433785 0.088573520635 176.068899958 -23.6946269933 -174.466958728 0 -211.013867622 0 -212.349043392 211.013867622 -90 -23.6946269933 36.5469088941 43.5560880156 122.967231045 -147.032768955 2.89850903276e-96 -1.13013956222e-99 -8.32522504121e-99 8.40159606741e-99 -97.7375770409 4.50801756594e-92
0.50352614643 0.090280854039 178.923828307 -23.4670816171 -177.377862678 0 -213.669997649 0 -214.945669121 213.669997649 -90 -23.4670816171 36.2921349717 43.21854579 122.897452445 -147.102547555 2.89850922025e-96 -1.32627837549e-99 -1.00311055325e-98 1.01184232153e-98 -97.5400880102 4.65535907116e-92
0.50352829263 0.092306907238 182.199172149 -23.203336615 -180.715211193 0 -216.708724991 0 -217.929585452 216.708724991 -90 -23.203336615 35.9935137982 42.8246000684 122.817619055 -147.182380945 2.89850743432e-96 -1.55654416334e-99 -1.213264878e-98 1.22321169266e-98 -97.3204452996 4.82734059293e-92
0.50353084326 0.094714755732 185.937749397 -22.8986643668 -184.521830494 0 -220.166195491 0 -221.337646418 220.166195491 -90 -22.8986643668 35.6443649962 42.3661050857 122.726632962 -147.273367038 2.89850453603e-96 -1.82602936912e-99 -1.4729026371e-98 1.48418259435e-98 -97.078236961 5.02747695668e-92
0.5035338785 0.097580071486 190.173038238 -22.5479729226 -188.830981524 0 -224.068016403 0 -225.196975427 224.068016403 -90 -22.5479729226 35.2370348788 41.8339066954 122.623480692 -147.376519308 2.89850045653e-96 -2.14023825167e-99 -1.79447391727e-98 1.80719768696e-98 -96.8138415288 5.25912003459e-92
0.50353749449 0.1009936405 194.919950219 -22.1458280824 -193.657090787 0 -228.419829599 0 -229.515873983 228.419829599 -90 -22.1458280824 34.7627388125 41.2177209818 122.507328139 -147.492671861 2.89849533579e-96 -2.50497130491e-99 -2.19348437818e-98 2.20774946199e-98 -96.5286335104 5.52492742418e-92
0.50354180664 0.10506438324 200.161154687 -21.6864742087 -198.982047619 0 -233.19341501 0 -234.270324939 233.19341501 -90 -21.6864742087 34.2113673904 40.5059800572 122.377642347 -147.622357653 2.8984890842e-96 -2.92612412926e-99 -2.68897842405e-98 2.70486334941e-98 -96.2251624579 5.8259645064e-92
0.50354695335 0.10992297824 205.42716362 -21.2016313614 -204.329330563 0 -237.94696633 0 -239.384786128 237.94696633 -90 -21.2016313614 33.6176357677 39.7450217878 122.244907558 -147.755092442 2.89848261357e-96 -3.15792797712e-99 -3.04295498879e-98 3.05930943757e-98 -95.9291244749 6.13620793034e-92
0.50355231588 0.11498530587 210.549424711 -20.6982914386 -209.528877251 0 -242.51718401 0 -244.073988039 242.51718401 -90 -20.6982914386 32.9883067586 38.9442948419 122.11192489 -147.88807511 2.89847608906e-96 -3.14827382268e-99 -3.18469604372e-98 3.20023002146e-98 -95.6464635442 6.44539002904e-92
0.50355768308 0.12005203719 215.146164328 -20.2074790789 -214.194501843 0 -246.556495623 0 -248.127701718 246.556495623 -90 -20.2074790789 32.3619937801 38.1529787216 121.987008791 -148.012991209 2.89847005723e-96 -3.0776837487e-99 -3.25976871167e-98 3.27427398389e-98 -95.3938379558 6.7291597044e-92
0.50356305505 0.12512328042 219.12449391 -19.7370823282 -218.233322263 0 -249.983238681 0 -251.563190105 249.983238681 -90 -19.7370823282 31.7499164179 37.3847197951 121.871927874 -148.128072126 2.89846454151e-96 -3.01007664286e-99 -3.32557661446e-98 3.33917860527e-98 -95.1718413473 6.97954930326e-92
0.50356843192 0.13019914617 220.96041422 -19.5068320538 -220.097562883 0 -251.544979516 0 -254.40181528 251.544979516 -90 -19.5068320538 31.4474166332 37.0062486589 121.8167671 -148.1832329 2.89846170115e-96 -2.97699479781e-99 -3.35618202176e-98 3.3693611418e-98 -95.0679327444 7.09619435348e-92
0.51461914919 0.081424209279 144.386302985 -22.028244577 -142.695969978 0 -175.684838319 0 -176.86009963 175.684838319 -90 -22.028244577 32.9888683414 39.6678852084 123.749957373 -146.250042627 1.64875221784e-94 -2.39067787739e-98 -1.5402379399e-97 1.55868114924e-97 -98.7793601345 1.55626905304e-90
0.51462003768 0.081951809829 144.912474928 -21.9957422945 -143.233311829 0 -176.194592309 0 -177.676456361 176.194592309 -90 -21.9957422945 32.9612804801 39.6268897098 123.732880338 -146.267119662 9.09213782642e-95 -1.34596259664e-98 -8.68626443636e-98 8.78992874617e-98 -98.7342476844 8.590580691e-91
0.51462105445 0.082555581586 145.96545521 -21.9293793707 -144.308643375 0 -177.212545185 0 -178.603629103 177.212545185 -90 -21.9293793707 32.9039018091 39.5423204256 123.698780928 -146.301219072 1.67978396532e-95 -2.86432687352e-99 -1.87057453835e-98 1.89237844873e-98 -98.6442114763 1.61553873297e-91
0.51462222364 0.083249863231 147.152426827 -21.8521043405 -145.520748772 0 -178.355854589 0 -179.660471002 178.355854589 -90 -21.8521043405 32.8351058175 39.4422137385 123.660501048 -146.339498952 5.53435909585e-96 -1.06387207396e-99 -7.04332963285e-99 7.12322961033e-99 -98.5433739132 5.65617923232e-92
0.51462357419 0.084051839217 148.496583707 -21.762180134 -146.893176684 0 -179.646215097 0 -180.868794117 179.646215097 -90 -21.762180134 32.7530384124 39.3240696537 123.617347646 -146.382652354 2.89820404146e-96 -6.53466035232e-100 -4.41090895866e-99 4.45905473608e-99 -98.4302795317 3.20892141489e-92
0.51462514079 0.084982108367 150.024748151 -21.6576404479 -148.453119349 0 -181.108701848 0 -182.25363088 181.108701848 -90 -21.6576404479 32.6555824992 39.185044399 123.568529001 -146.431470999 2.8985485656e-96 -7.55238680294e-100 -5.17758995652e-99 5.2323871123e-99 -98.3033790325 3.27556656118e-92
0.51462696502 0.086065366133 151.76756169 -21.536266187 -150.231591867 0 -182.771903221 0 -183.843404854 182.771903221 -90 -21.536266187 32.5403113533 39.0218992137 123.513152424 -146.486847576 2.89870586921e-96 -8.75459754831e-100 -6.10876010153e-99 6.17118000266e-99 -98.1610690639 3.35218418072e-92
0.51462909676 0.087331223232 153.759500712 -21.3955639224 -152.26343121 0 -184.667865968 0 -185.669929802 184.667865968 -90 -21.3955639224 32.4044347577 38.8309443531 123.450226953 -146.549773047 2.89876605694e-96 -1.01738026887e-99 -7.24342622272e-99 7.3145350441e-99 -98.0017524918 3.4407365013e-92
0.5146315958 0.0888151879 156.038592206 -21.2327478242 -154.586989535 0 -186.831725846 0 -187.768113143 186.831725846 -90 -21.2327478242 32.2447363108 38.6079777567 123.37867342 -146.62132658 2.8987845941e-96 -1.18473347832e-99 -8.63061413893e-99 8.71156270182e-99 -97.8239232399 3.54344327011e-92
0.51463453385 0.09055984444 158.645640524 -21.0447260836 -157.243332504 0 -189.30083139 0 -190.175176438 189.30083139 -90 -21.0447260836 32.0574988854 38.3482163598 123.297345006 -146.702654994 2.89878881671e-96 -1.38177204615e-99 -1.03320893592e-98 1.04240951316e-98 -97.6262787238 3.66279092143e-92
0.51463799692 0.092616267246 161.622684391 -20.8280918216 -160.274662355 0 -192.113075457 0 -192.929116592 192.113075457 -90 -20.8280918216 31.8384131016 38.0462156214 123.205061991 -146.794938009 2.89878900548e-96 -1.61329548066e-99 -1.24257845115e-98 1.25301046522e-98 -97.4078606356 3.8015154356e-92
0.51464208818 0.095045717306 165.010277326 -20.5791168618 -163.721560687 0 -195.304021792 0 -196.066007357 195.304021792 -90 -20.5791168618 31.5824611052 37.6957697121 123.100664896 -146.899335104 2.89878818399e-96 -1.88465902262e-99 -1.50100200686e-98 1.51279150019e-98 -97.1682210526 3.96252766152e-92
0.51464693138 0.097921677521 168.843018924 -20.2937445807 -167.618481638 0 -198.902247004 0 -199.615576436 198.902247004 -90 -20.2937445807 31.2837653658 37.2897813202 122.983090175 -147.016909825 2.89878665731e-96 -2.20174934847e-99 -1.82085048128e-98 1.83411927752e-98 -96.9076054904 4.14873515129e-92
0.51465267495 0.1013322944 173.142562888 -19.9675758668 -171.986726234 0 -202.922117122 0 -203.594290895 202.922117122 -90 -19.9675758668 30.9353908878 36.8200875842 122.851471841 -147.148528159 2.89878454499e-96 -2.57091049951e-99 -2.21759372567e-98 2.23245419301e-98 -96.6271379756 4.36270196395e-92
0.51465949697 0.10538330706 177.90712017 -19.5958414033 -176.823922393 0 -207.353014193 0 -207.994967767 207.353014193 -90 -19.5958414033 30.5290917994 36.2772302092 122.705270539 -147.294729461 2.89878153908e-96 -2.99879201056e-99 -2.71036137069e-98 2.72691088935e-98 -96.3289864674 4.60605425829e-92
0.51466761105 0.11020156061 182.73257413 -19.2030381107 -181.720069441 0 -211.808333212 0 -212.771776872 211.808333212 -90 -19.2030381107 30.0882637705 35.6941688265 122.556033082 -147.443966918 2.89877819944e-96 -3.23900428763e-99 -3.06515904412e-98 3.08223674321e-98 -96.0375518502 4.85904294653e-92
0.51467606282 0.11522034764 187.479222064 -18.7944314718 -186.534194688 0 -216.151220094 0 -217.224890594 216.151220094 -90 -18.7944314718 29.617025406 35.0772065822 122.406810778 -147.593189222 2.8987744927e-96 -3.23748587337e-99 -3.21154309626e-98 3.22783023357e-98 -95.7584580211 5.11424044596e-92
0.51468452672 0.12024633162 191.809960272 -18.3947029148 -190.925393279 0 -220.069104107 0 -221.159724805 220.069104107 -90 -18.3947029148 29.1437108279 34.4634722437 122.266676149 -147.733323851 2.89877075934e-96 -3.1744832136e-99 -3.29307889782e-98 3.30835284112e-98 -95.5078279767 5.35263763325e-92
0.51469300303 0.12527968906 195.637232485 -18.0101186769 -194.806053897 0 -223.482819425 0 -224.587159851 223.482819425 -90 -18.0101186769 28.6767655283 33.8633994971 122.137517566 -147.862482434 2.89876704734e-96 -3.11395991156e-99 -3.36621499844e-98 3.38059458111e-98 -95.2864223418 5.56772338309e-92
0.51470149207 0.13032060039 197.425011721 -17.8215389749 -196.618893799 0 -225.063852833 0 -227.521064587 225.063852833 -90 -17.8215389749 28.4449590335 33.5667944844 122.075607242 -147.924392758 2.89876494247e-96 -3.08430371902e-99 -3.40067756297e-98 3.41463741802e-98 -95.1825291737 5.66921321886e-92
0.52714479435 0.081230467099 126.105199804 -19.4582465337 -124.594897486 0 -153.128989495 0 -153.866318989 153.128989495 -90 -19.4582465337 28.5340920087 34.5376768133 124.313260574 -145.686739426 5.37343188588e-93 -8.45282185848e-97 -5.38713513961e-96 5.45304763349e-96 -98.8794103979 3.77606614094e-89
0.52714617023 0.081821188888 126.610737922 -19.4294406054 -125.110977695 0 -153.625752365 0 -154.68425783 153.625752365 -90 -19.4294406054 28.5147746694 34.5054838161 124.291598116 -145.708401884 2.65602946704e-93 -4.20159397105e-97 -2.67943580963e-96 2.71217841523e-96 -98.830511233 1.8696231265e-89
0.52714772302 0.082487862333 127.62320995 -19.3709580634 -126.144479178 0 -154.619167487 0 -155.600341486 154.619167487 -90 -19.3709580634 28.4746883094 34.4394191255 124.248349635 -145.751650365 1.32744045155e-94 -2.36182039964e-98 -1.52540243089e-97 1.5435789658e-97 -98.7331214757 9.70999089915e-91
0.52714948509 0.083244389915 128.753490179 -19.3041450602 -127.298032989 0 -155.725225102 0 -156.630846889 155.725225102 -90 -19.3041450602 28.4271921127 34.3625631171 124.20035348 -145.79964652 1.92880264417e-95 -3.89304749676e-99 -2.55065572358e-98 2.58019555628e-98 -98.6256141173 1.4753024336e-91
0.52715149522 0.084107423002 130.021083015 -19.2276606099 -128.591422889 0 -156.962433396 0 -157.794640934 156.962433396 -90 -19.2276606099 28.371010507 34.2731145026 124.14686993 -145.85313007 5.27120702948e-96 -1.21485963822e-99 -8.0839433074e-99 8.17472508365e-99 -98.5066790077 4.20130087797e-92
0.52715379989 0.085096910821 131.448636648 -19.1399954379 -130.047588326 0 -158.352285805 0 -159.113438475 158.352285805 -90 -19.1399954379 28.3046974789 34.1690389276 124.087055318 -145.912944682 2.89857851077e-96 -7.82815845637e-100 -5.32053395022e-99 5.37781841137e-99 -98.3749210767 2.51604409197e-92
0.52715645478 0.086236759159 133.062171756 -19.0394563955 -131.692844404 0 -159.919449468 0 -160.612001211 159.919449468 -90 -19.0394563955 28.2266050633 34.0480348619 124.019959821 -145.980040179 2.89890316196e-96 -8.98767317737e-100 -6.21933304004e-99 6.28394494366e-99 -98.228894519 2.57837192977e-92
0.52715952661 0.087555620695 134.891185316 -18.924151155 -133.556973293 0 -161.691816469 0 -162.318217322 161.691816469 -90 -18.924151155 28.1348431756 33.9074926094 123.944530853 -146.055469147 2.89903747178e-96 -1.03548003625e-99 -7.31201146267e-99 7.38497517288e-99 -98.0671545885 2.6497735067e-92
0.52716309539 0.089087843244 136.968537003 -18.7919738125 -135.673093986 0 -163.70032236 0 -164.262969054 163.70032236 -90 -18.7919738125 28.0272283742 33.7444447612 123.859624616 -146.140375384 2.89908347804e-96 -1.19660590423e-99 -8.64522712918e-99 8.72765897291e-99 -97.8883305265 2.73198635642e-92
0.52716725704 0.090874607452 139.329977313 -18.6405915331 -138.07716936 0 -165.978387057 0 -166.47964801 165.978387057 -90 -18.6405915331 27.9012176974 33.5555049003 123.764029 -146.235971 2.89909626261e-96 -1.38633497458e-99 -1.02777170904e-98 1.03708125836e-98 -97.6912223294 2.82695851026e-92
0.52717212657 0.092965291699 142.01310742 -18.4674313833 -140.806940896 0 -168.560762555 0 -169.003109134 168.560762555 -90 -18.4674313833 27.753821659 33.3367890328 123.656501677 -146.343498323 2.89909910923e-96 -1.60943991038e-99 -1.22835725328e-98 1.23885860188e-98 -97.4749222467 2.93685183119e-92
0.52717784189 0.095419109559 145.055463983 -18.269664869 -143.899985455 0 -171.481473235 0 -171.867759361 171.481473235 -90 -18.269664869 27.5814877805 33.0838109662 123.535827591 -146.464172409 2.89909979942e-96 -1.87131061815e-99 -1.47563251144e-98 1.48745412291e-98 -97.2389588432 3.06401221698e-92
0.5271845684 0.098307074092 148.491292357 -18.0441855068 -147.390459826 0 -174.770402931 0 -175.104348117 174.770402931 -90 -18.0441855068 27.3799431052 32.7913390645 123.400899971 -146.599100029 2.89909986773e-96 -2.177965367e-99 -1.78138752913e-98 1.79465722154e-98 -96.9834570742 3.21087238697e-92
0.52719250448 0.10171435407 152.346407988 -17.7875724008 -151.303936255 0 -178.44791822 0 -178.734863478 178.44791822 -90 -17.7875724008 27.1439819656 32.4531985333 123.250828029 -146.749171971 2.89909966517e-96 -2.53602365524e-99 -2.16041849984e-98 2.17525906828e-98 -96.7093023785 3.37974807457e-92
0.52720188805 0.10574310007 156.630362587 -17.4960313026 -155.649549921 0 -182.516735815 0 -182.764750804 182.516735815 -90 -17.4960313026 26.8671858943 32.0620029202 123.085072296 -146.914927704 2.89909880907e-96 -2.95261432807e-99 -2.63113289171e-98 2.64765728015e-98 -96.4182910601 3.57246408079e-92
0.52721300449 0.11051583387 161.000064676 -17.1877347385 -160.079417049 0 -186.642845054 0 -187.171504162 186.642845054 -90 -17.1877347385 26.563428005 31.6393363481 122.916364311 -147.083635689 2.89909767246e-96 -3.19139136917e-99 -2.97286786032e-98 2.98995919856e-98 -96.1333424249 3.77438818121e-92
0.5272245796 0.11548549441 165.341457334 -16.8664684323 -164.478442581 0 -190.713111235 0 -191.340244703 190.713111235 -90 -16.8664684323 26.2346686536 31.188899711 122.748032765 -147.251967235 2.89909607265e-96 -3.19859928562e-99 -3.11822573682e-98 3.13459729141e-98 -95.8597185649 3.98029946752e-92
0.52723617881 0.12046550572 169.36147102 -16.5512029098 -168.550366865 0 -194.450611318 0 -195.094155193 194.450611318 -90 -16.5512029098 25.9002444529 30.7371962022 122.58999843 -147.41000157 2.89909420278e-96 -3.14648663785e-99 -3.20311808277e-98 3.2185430765e-98 -95.6128526064 4.17573592212e-92
0.52724780272 0.12545612107 172.979612627 -16.2467036702 -172.214603755 0 -197.780677701 0 -198.43930029 197.780677701 -90 -16.2467036702 25.5660739469 30.2917215689 122.4442845 -147.5557155 2.89909206922e-96 -3.0962994957e-99 -3.28080841975e-98 3.29539353918e-98 -95.393639829 4.35554883001e-92
0.52725945194 0.13045759931 174.687088099 -16.0971298506 -173.943772675 0 -199.342946045 0 -201.383886002 199.342946045 -90 -16.0971298506 25.3991733693 30.0706272734 122.374442441 -147.625557559 2.89909063095e-96 -3.0716804569e-99 -3.31782278747e-98 3.33201281383e-98 -95.2905267662 4.44132363199e-92
0.54090233714 0.08101767037 109.410470549 -17.0165674427 -108.079066881 0 -132.443084372 0 -132.792793129 132.443084372 -90 -17.0165674427 24.3640174906 29.7186891484 124.958324725 -145.041675275 8.88466384017e-91 -1.45531931122e-94 -9.21505285848e-94 9.32926330776e-94 -98.9495229516 4.64100895668e-87