TITLE = "Electromagnetic Field"
VARIABLES = X Y E ER EI EvR EvI EvR' EvI' Ev EvPhase EpR EpI Ep EpPhase EpToEvPhaseShift elConductivity Jr Ji J Jphase QJ
ZONE N=294, E=256, F=FEPOINT, ET=QUADRILATERAL
0.86014276006 0.042748811038 6.56400146609 -1.40539711428 -6.41178401055 0 -7.36944678484 0 -7.35038321099 7.36944678484 -90 -1.40539711428 0.957662774293 1.70066429318 145.728781517 -124.271218483 85.5886113423 -0.000448463557795 -0.00204600638493 0.00209457911997 -102.363128411 1843.84038605
0.86195957274 0.041862963773 6.29989988719 -1.37925287256 -6.1470643483 0 -7.07274153518 0 -7.13408477973 7.07274153518 -90 -1.37925287256 0.925677186874 1.66108902253 146.132702948 -123.867297052 91.7483947925 -0.00012823431464 -0.00057151563679 0.000585725330293 -102.646341707 1820.68902842
0.86258355388 0.042157766999 6.3116696439 -1.37814668064 -6.15937260252 0 -7.08549588359 0 -7.16079340785 7.08549588359 -90 -1.37814668064 0.926123281076 1.66041970763 146.098635646 -123.901364354 91.2271025414 -0.000125799508018 -0.00056220772989 0.000576110379189 -102.612147407 1817.08170281
0.86321199867 0.042443225044 6.47665891955 -1.39161917548 -6.32538155899 0 -7.2702312049 0 -7.18555283813 7.2702312049 -90 -1.39161917548 0.94484964591 1.68206862107 145.826179779 -124.173820221 87.0540659241 -0.000396468354054 -0.00180450030841 0.00184754172428 -102.408485161 1825.26934671
0.86478078441 0.041576978325 6.2409843142 -1.36835461057 -6.08912852483 0 -7.0055639845 0 -6.98534236878 7.0055639845 -90 -1.36835461057 0.916435459668 1.64689135576 146.188910045 -123.811089955 92.7089079002 -0.000123391632087 -0.000549117376605 0.000562810293107 -102.665359283 1805.29102089
0.86540686351 0.041874143218 6.25279716475 -1.36727855363 -6.10147545226 0 -7.01837078343 0 -7.01226496803 7.01837078343 -90 -1.36727855363 0.916895331169 1.64625378197 146.154756341 -123.845243659 92.1860820859 -0.000121053090975 -0.00054019849643 0.000553595895389 -102.630997665 1801.87764427
0.86603743366 0.042161913138 6.34441898414 -1.36934238879 -6.19487609949 0 -7.11977183918 0 -7.03725488126 7.11977183918 -90 -1.36934238879 0.924895739682 1.6524343607 145.964412424 -124.035587576 89.2189349157 -0.000339640737994 -0.0015396608293 0.00157667786645 -102.465136725 1795.12420763
0.86734886652 0.041316655179 6.12484228238 -1.34665953605 -5.97496427648 0 -6.87314203089 0 -6.85275857739 6.87314203089 -90 -1.34665953605 0.898177754417 1.61870850801 146.298430766 -123.701569234 94.6683867423 -0.00011295277839 -0.000501184264113 0.000513754822383 -102.701450374 1775.50105808
0.86797648875 0.041616005408 6.13673930743 -1.34564355329 -5.9873863796 0 -6.88605151734 0 -6.87988544385 6.88605151734 -90 -1.34564355329 0.898665137745 1.61813429844 146.264098257 -123.735901743 94.1413001567 -0.000110819000056 -0.000493084085747 0.000505383895777 -102.666763876 1772.44795735
0.86860862587 0.041905914687 6.22811673013 -1.34800253579 -6.08048247963 0 -6.98718530629 0 -6.90509445256 6.98718530629 -90 -1.34800253579 0.906702826668 1.62457021596 146.07476596 -123.92523404 91.1240598875 -0.000311083101102 -0.00140606826488 0.0014400701646 -102.500541456 1766.87998947
0.86965533794 0.041082853185 6.02242199604 -1.32711224972 -5.87437979691 0 -6.75637718921 0 -6.73591379533 6.75637718921 -90 -1.32711224972 0.8819973923 1.59347034966 146.39235059 -123.60764941 96.5204971761 -0.000101860618302 -0.000450902511601 0.000462264719509 -102.730389918 1750.23121728
0.8702840591 0.041384193994 6.03439727931 -1.32615307968 -5.8868712295 0 -6.76938209691 0 -6.76323063037 6.76938209691 -90 -1.32615307968 0.882510867405 1.5929563058 146.357860539 -123.642139461 95.9867559336 -9.99399133385e-05 -0.000443637484431 0.000454755200786 -102.69544073 1747.44893763
0.87091731573 0.041676052048 6.12556871004 -1.32879143301 -5.97970304749 0 -6.87028386654 0 -6.7886427677 6.87028386654 -90 -1.32879143301 0.890580819046 1.59963355874 146.169785211 -123.830214789 92.9168369417 -0.000280660503655 -0.00126556067559 0.00129630831217 -102.52909801 1742.82990178
0.87169512947 0.040876085374 5.93326844606 -1.30974379245 -5.78690285419 0 -6.65474037109 0 -6.63430325978 6.65474037109 -90 -1.30974379245 0.867837516899 1.57116890797 146.471745041 -123.528254959 98.2275878725 -9.02952474461e-05 -0.000398974277016 0.000409064432774 -102.752905775 1728.87104655
0.87232461567 0.041179206701 5.94531521849 -1.30884111654 -5.79945629747 0 -6.66783163084 0 -6.66179185406 6.66783163084 -90 -1.30884111654 0.868375333371 1.57071406968 146.437192722 -123.562807278 97.6855173705 -8.85943236081e-05 -0.000392557060893 0.000402430201601 -102.717787999 1726.28659991
0.87295865493 0.041472807938 6.03631973016 -1.3117373312 -5.89206642829 0 -6.76853329514 0 -6.68738727261 6.76853329514 -90 -1.3117373312 0.876466866853 1.57761051928 146.250683315 -123.749316685 94.5649932028 -0.000248891131347 -0.00112022267892 0.0011475393142 -102.551496384 1722.46298848
0.87346770073 0.040696405773 5.85682599716 -1.29457822885 -5.71195915745 0 -6.56757984371 0 -6.54729459887 6.56757984371 -90 -1.29457822885 0.855620686254 1.55177969502 146.538413206 -123.461586794 99.7633280573 -7.85128925871e-05 -0.000346430164781 0.000355215618149 -102.770021782 1710.97469131
0.87409772164 0.041001087024 5.86893891539 -1.29373594232 -5.72456788167 0 -6.58074699573 0 -6.57493374775 6.58074699573 -90 -1.29373594232 0.85617911406 1.55138548837 146.504047251 -123.495952749 99.2151687047 -7.70374402553e-05 -0.000340873623131 0.000349470518455 -102.734868583 1708.58618292
0.87473231049 0.041296215511 5.9598149615 -1.29685112174 -5.81700259184 0 -6.68127716464 0 -6.60068965069 6.68127716464 -90 -1.29685112174 0.864274572798 1.55846039327 146.319272832 -123.680727168 96.0500862482 -0.000216500085403 -0.000973054952433 0.000996849457951 -102.568603997 1705.47230701
0.87497797208 0.040543314967 5.79242594846 -1.28161996236 -5.64886256944 0 -6.49409877217 0 -6.47409308887 6.49409877217 -90 -1.28161996236 0.845236202733 1.53524410274 146.59503237 -123.40496763 101.136663317 -6.68325802458e-05 -0.000294581762967 0.000302067889199 -102.78295368 1696.61215883
0.87560839147 0.040849330885 5.80460625445 -1.28085030603 -5.66152479744 0 -6.50733057972 0 -6.50185953296 6.50733057972 -90 -1.28085030603 0.845805782276 1.53491572126 146.56146109 -123.43853891 100.594331979 -6.55878756728e-05 -0.000289902316247 0.000297229132269 -102.747966874 1694.58519013
0.87624339128 0.041145766104 5.8953781613 -1.28408939635 -5.75382885933 0 -6.6077149064 0 -6.52775113727 6.6077149064 -90 -1.28408939635 0.853886047065 1.54208043722 146.377463562 -123.622536438 97.3824871408 -0.000184357273878 -0.000827736807063 0.000848019026454 -102.581136864 1691.95815206
0.87623653638 0.040415738751 5.68632420604 -1.26618193734 -5.54355793416 0 -6.37428974013 0 -6.41373772483 6.37428974013 -90 -1.26618193734 0.830731805965 1.51437657612 146.731922816 -123.268077184 104.094636928 -9.68990130704e-05 -0.000423700216965 0.00043463942676 -102.86653315 1682.55854698
0.87686728543 0.040722867164 5.69824244423 -1.26544287243 -5.55594974131 0 -6.38727497095 0 -6.44160776527 6.38727497095 -90 -1.26544287243 0.831325229641 1.51408466376 146.697787829 -123.302212171 103.531720115 -9.62177201281e-05 -0.000421894235586 0.000432727166104 -102.831613494 1680.45761329
0.87750262527 0.041020391599 5.79602415364 -1.26967501283 -5.65523267668 0 -6.49554513486 0 -6.46760993751 6.49554513486 -90 -1.26967501283 0.840312458177 1.52256918604 146.503351751 -123.496648249 100.033597491 -0.000135151809416 -0.000603062430224 0.000618022694085 -102.655836269 1679.09714431
0.84957130077 0.05590906852 9.01904059811 -1.50619353177 -8.8923829402 0 -10.1101380849 0 -10.091329378 10.1101380849 -90 -1.50619353177 1.21775514466 1.93689094879 141.044514253 -128.955485747 26.6664575344 -0.000237329674356 -0.00140116545645 0.0014211227993 -99.6135268961 1084.56607174
0.84956965613 0.057483418221 9.14702322191 -1.5041019698 -9.02248178753 0 -10.251683854 0 -10.3671876065 10.251683854 -90 -1.5041019698 1.22920206651 1.94251409981 140.744008543 -129.255991457 22.4659604531 -0.00020236869216 -0.00121073864921 0.00122753842849 -99.4665089936 935.2556528
0.84956795892 0.059108090724 9.40284693931 -1.49982705354 -9.2824302007 0 -10.5345135156 0 -10.6511478929 10.5345135156 -90 -1.49982705354 1.25208331485 1.95379131121 140.145137114 -129.854862886 13.9553904511 -0.000129113520583 -0.00079534170132 0.000805755790781 -99.1803069757 611.708072285
0.8495662077 0.060784459387 9.66628413977 -1.49552349528 -9.54986530918 0 -10.8255574599 0 -10.9433619873 10.8255574599 -90 -1.49552349528 1.27569215072 1.96572910192 139.536548984 -130.463451016 6.24739894695 -5.92745446138e-05 -0.000375408698099 0.000380060231153 -98.9022077015 287.597196728
0.84956440098 0.062513954289 9.93746661663 -1.49171439815 -9.82484193049 0 -11.1249666743 0 -11.2439831012 11.1249666743 -90 -1.49171439815 1.30012474385 1.97879925339 138.926816955 -131.073183045 1.83706208804 -1.79182613968e-05 -0.000116957221466 0.000118322042084 -98.6351369292 89.2320518457
0.84956253721 0.064298068698 10.2165242505 -1.48873366173 -10.107450244 0 -11.4328936224 0 -11.5531662545 11.4328936224 -90 -1.48873366173 1.3254433784 1.99329815099 138.321966108 -131.678033892 0.514675163907 -5.17657626092e-06 -3.49033673499e-05 3.52852199552e-05 -98.3806098335 26.515096909
0.84956061474 0.066138366737 10.5035877864 -1.4866879091 -10.3978194149 0 -11.7494926501 0 -11.871068747 11.7494926501 -90 -1.4866879091 1.35167323519 2.00932069422 137.72462143 -132.27537857 0.195712265845 -2.02932724087e-06 -1.41116336576e-05 1.42568271644e-05 -98.138675412 10.6772879853
0.84955863187 0.068036492477 10.7987909356 -1.48560102491 -10.6960941598 0 -12.0749205301 0 -12.1978507736 12.0749205301 -90 -1.48560102491 1.37882637024 2.02688904503 137.136094323 -132.863905677 0.0833528559358 -8.90584495526e-07 -6.37580924448e-06 6.43771863365e-06 -97.9088839938 4.80608684976
0.84955658677 0.06999418075 10.9461051798 -1.48529951069 -10.8448653274 0 -12.2372838305 0 -12.5336762303 12.2372838305 -90 -1.48529951069 1.39241850305 2.03591353551 136.84863247 -133.15136753 0.0498862807011 -5.44376112669e-07 -3.97474420942e-06 4.01184955879e-06 -97.7986399935 2.98861770012
0.85331194928 0.049781130495 7.89215535022 -1.48408024052 -7.7513625842 0 -8.85534997063 0 -8.83911475266 8.85534997063 -90 -1.48408024052 1.10398738643 1.84967086523 143.354935494 -126.645064506 55.2277589893 -0.0004061208614 -0.0021211724028 0.00215970056176 -100.838713738 1719.96130341
0.85331057612 0.051180935614 8.0046199962 -1.48432072882 -7.86576803772 0 -8.98011723226 0 -9.08197152927 8.98011723226 -90 -1.48432072882 1.11434919455 1.85608360723 143.103564687 -126.896435313 52.204111889 -0.000389962487632 -0.00206530658195 0.00210180670913 -100.688458758 1670.14602024
0.85330915811 0.052626454081 8.22949606386 -1.48409860111 -8.09454133137 0 -9.22949107237 0 -9.33226711344 9.22949107237 -90 -1.48409860111 1.13494974099 1.86835017715 142.594240531 -127.405759469 46.036012918 -0.000354974361588 -0.00193458212646 0.00196688610265 -100.391604045 1556.19085325
0.85330769408 0.054118881585 8.4613664996 -1.48255999336 -8.33044133949 0 -9.48641788291 0 -9.59014654177 9.48641788291 -90 -1.48255999336 1.15597654341 1.87998607942 142.056700754 -127.943299246 39.4088744959 -0.000313308775108 -0.00175857312898 0.00178627083046 -100.093292602 1407.58847666
0.85330618283 0.055659451451 8.81119413446 -1.48900824628 -8.68443922836 0 -9.875923499 0 -9.85575540669 9.875923499 -90 -1.48900824628 1.19148427064 1.90706332386 141.336656885 -128.663343115 30.2945700971 -0.000254650208114 -0.00148288560053 0.00150459708611 -99.7319888756 1170.35971946
0.85330462311 0.057249437645 9.04927249222 -1.49048005345 -8.92565205229 0 -10.1403692951 0 -10.1292398479 10.1403692951 -90 -1.49048005345 1.21471724283 1.92280412703 140.822212591 -129.177787409 23.3946442287 -0.000203780028687 -0.0012172096891 0.00123415377756 -99.4824590401 952.643226054
0.85330301361 0.058890158264 9.30405693542 -1.48620314001 -9.18455951773 0 -10.4220422773 0 -10.4107465784 10.4220422773 -90 -1.48620314001 1.2374827596 1.93397931302 140.219333633 -129.780666367 14.8634777176 -0.00013289003571 -0.000817538123761 0.000828270706443 -99.193799771 637.364804761
0.85330135301 0.060582979645 9.56642031565 -1.48184303223 -9.45092614769 0 -10.7118903127 0 -10.7004229583 10.7118903127 -90 -1.48184303223 1.26096416502 1.94576586165 139.605819389 -130.394180611 6.9090190048 -6.32695269111e-05 -0.000400281593321 0.000405251929862 -98.913088543 311.045770558
0.8532996399 0.062329321189 9.83649256235 -1.47793559071 -9.7248022413 0 -11.0100620999 0 -10.9984171384 11.0100620999 -90 -1.47793559071 1.28525985857 1.95864790143 138.990487581 -131.009512419 2.10552860477 -1.97891150649e-05 -0.000129000282199 0.000130509553092 -98.643376538 99.901021948
0.85329787285 0.064130661048 10.1144011116 -1.47484335497 -10.0062708879 0 -11.3167074531 0 -11.3048782719 11.3167074531 -90 -1.47484335497 1.31043656518 1.97294712428 138.379863971 -131.620136029 0.570243133873 -5.53128240323e-06 -3.72569795927e-05 3.76654096227e-05 -98.386371639 28.7233381491
0.85329605032 0.065988542853 10.4002736488 -1.47269003681 -10.2954557826 0 -11.6319776399 0 -11.6199568359 11.6319776399 -90 -1.47269003681 1.33652185725 1.98877299451 137.776885467 -132.223114533 0.210366984188 -2.10562874024e-06 -1.463366236e-05 1.47844026811e-05 -98.1422164324 11.2345053158
0.85329417075 0.067904583679 10.6942402909 -1.47150252733 -10.5924979136 0 -11.956025842 0 -11.9438050609 11.956025842 -90 -1.47150252733 1.36352792834 2.00614986434 137.1829458 -132.8170542 0.0887800981443 -9.15894027488e-07 -6.55532229743e-06 6.61900744387e-06 -97.9104614137 5.01421836226
0.85329223245 0.069880483496 10.8409389842 -1.47115323024 -10.7406548318 0 -12.1177022902 0 -12.2765775207 12.1177022902 -90 -1.47115323024 1.37704745838 2.01508165349 136.892869043 -133.107130957 0.0531077320659 -5.59526700289e-07 -4.08500144665e-06 4.12314284859e-06 -97.7993079374 3.11722024672
0.85683775272 0.04679826792 7.29744954202 -1.45147459637 -7.15164256059 0 -8.18976753111 0 -8.17074695379 8.18976753111 -90 -1.45147459637 1.03812497052 1.78451168624 144.426857709 -125.573142291 68.1394159457 -0.000434336881885 -0.00214004581126 0.00218367685367 -101.472736599 1814.30631646
0.85683656192 0.048122503001 7.4022983753 -1.45336373519 -7.25819556897 0 -8.30626339497 0 -8.39732316759 8.30626339497 -90 -1.45336373519 1.048067826 1.79185914791 144.204284945 -125.795715055 65.3650471396 -0.000423912409684 -0.0021163369475 0.00215838221245 -101.325047204 1789.07090287
0.85683533173 0.04949054689 7.70988880216 -1.46603553819 -7.56919544445 0 -8.64964501242 0 -8.63099147894 8.64964501242 -90 -1.46603553819 1.08044956797 1.82118181681 143.612992758 -126.387007242 58.1951925321 -0.00040300653052 -0.00208010117018 0.00211878889164 -100.964500792 1726.619051
0.85683406112 0.050903531621 7.91891677254 -1.47146067507 -7.78097772623 0 -8.88246548528 0 -8.87189371414 8.88246548528 -90 -1.47146067507 1.10148775905 1.83808108024 143.184356118 -126.815643882 53.0555928291 -0.000382395431876 -0.00202097756087 0.00205684363101 -100.711070381 1660.85353744
0.85683274906 0.052362621068 8.14294218934 -1.47138799162 -8.00887398912 0 -9.13089363815 0 -9.12017214486 9.13089363815 -90 -1.47138799162 1.12201964902 1.85040251886 142.674020667 -127.325979333 46.8842892043 -0.000348817928347 -0.00189722583125 0.00192903233411 -100.412601726 1551.29715488
0.85683139445 0.053869012915 8.37393427032 -1.46997279023 -8.24387439123 0 -9.38684445655 0 -9.3759693878 9.38684445655 -90 -1.46997279023 1.14297006531 1.86206555434 142.134966221 -127.865033779 40.2622981192 -0.000308837332145 -0.00173021260071 0.00175756584806 -100.112521391 1408.06357634
0.85682999621 0.055423940945 8.61203274009 -1.46734995026 -8.48607555331 0 -9.65046103899 0 -9.63942831285 9.65046103899 -90 -1.46734995026 1.16438548568 1.87323400854 141.568581216 -128.431418784 33.0929973894 -0.000261396066968 -0.00150943851001 0.00153191014943 -99.8124518254 1223.00609147
0.85682855317 0.057028677678 8.85737529483 -1.46373834918 -8.73556160581 0 -9.9218867145 0 -9.91069197761 9.9218867145 -90 -1.46373834918 1.18632510869 1.88414472503 140.977662406 -129.022337594 25.2519852523 -0.000205127670492 -0.00122132273071 0.00123843320509 -99.514409643 985.591582342
0.85682706416 0.058684537445 9.11009667038 -1.45946747645 -8.99240114394 0 -10.2012650082 0 -10.1899035797 10.2012650082 -90 -1.45946747645 1.20886386426 1.89512731585 140.366960649 -129.633039351 16.6959316026 -0.000139238774515 -0.000854410853467 0.000865684673622 -99.2209060258 687.081634396
0.85682552796 0.060392879984 9.37032762217 -1.45500377669 -9.25664474731 0 -10.4887396453 0 -10.477206452 10.4887396453 -90 -1.45500377669 1.23209489804 1.90662206075 139.743760046 -130.256239954 8.29871542375 -7.08882129316e-05 -0.000447601955006 0.000453181701175 -98.9350237937 358.91879405
0.8568239433 0.062155114646 9.63819428134 -1.45090424417 -9.52833422672 0 -10.7844546039 0 -10.7727441012 10.7844546039 -90 -1.45090424417 1.25612037719 1.91913406271 139.117299721 -130.882700279 2.70642764193 -2.37001046902e-05 -0.000154139514449 0.000155951191456 -98.6600432629 123.260136145
0.85682230886 0.06397270535 9.9138191129 -1.44758842307 -9.80753835983 0 -11.0885542298 0 -11.0766603068 11.0885542298 -90 -1.44758842307 1.28101587 1.93303553505 138.495112447 -131.504887553 0.697873574641 -6.30188127216e-06 -4.23645984433e-05 4.28308302154e-05 -98.3980654674 33.743030149
0.85682062326 0.06584717642 10.1973235436 -1.44521797957 -10.0943691362 0 -11.401183431 0 -11.3890992959 11.401183431 -90 -1.44521797957 1.3068142948 1.94846838677 137.880827991 -132.119172009 0.242435970572 -2.25938040136e-06 -1.56839479922e-05 1.58458822948e-05 -98.1494482611 12.4423380907
0.85681888509 0.067780119486 10.488830302 -1.44382697967 -10.3889597112 0 -11.7224879683 0 -11.7102060102 11.7224879683 -90 -1.44382697967 1.33352825703 1.96546232585 137.276026939 -132.723973061 0.100329392587 -9.63700499722e-07 -6.89388031225e-06 6.96092468469e-06 -97.9137497923 5.45072940256
0.85681709284 0.069773201654 10.6343038616 -1.44338097526 -10.5358943597 0 -11.8827978465 0 -12.0401264951 11.8827978465 -90 -1.44338097526 1.3469034868 1.97420864927 136.980703616 -133.019296384 0.0599014389457 -5.87531516069e-07 -4.28864658363e-06 4.32870451812e-06 -97.8007704667 3.38368381913
0.86014178853 0.043958695507 6.65858488846 -1.40961807402 -6.50764754446 0 -7.47475941654 0 -7.55497445018 7.47475941654 -90 -1.40961807402 0.967111872079 1.70949019778 145.547634863 -124.452365137 82.9993152766 -0.00044346763213 -0.00204698270917 0.00209447530555 -102.223905207 1838.74222571
0.86014078413 0.045209511458 6.84775122621 -1.41724601622 -6.69946486352 0 -7.68530975443 0 -7.76618629356 7.68530975443 -90 -1.41724601622 0.985844890902 1.72641523013 145.178205093 -124.821794907 77.8494887584 -0.000432291098371 -0.00204306621556 0.00208830584922 -101.946568041 1823.89509606
0.86013974603 0.046502310756 7.1325158588 -1.43334032128 -6.98698703233 0 -8.00354617378 0 -7.98415715754 8.00354617378 -90 -1.43334032128 1.01655914146 1.7572448384 144.657353374 -125.342646626 71.0152086472 -0.000423941438827 -0.0020663577512 0.00210940510136 -101.595896739 1804.07186929
0.86013867334 0.047838172072 7.32608513031 -1.44125887719 -7.18289214624 0 -8.21940762569 0 -8.20902613496 8.21940762569 -90 -1.44125887719 1.03651547944 1.77528679147 144.278946786 -125.721053214 66.2249361082 -0.000412916696725 -0.00205727970503 0.00209831581384 -101.348128511 1775.17416347
0.86013756518 0.049218202085 7.53501998102 -1.44442403985 -7.39525367262 0 -8.45145867693 0 -8.44093285467 8.45145867693 -90 -1.44442403985 1.05620500431 1.78941017656 143.826264875 -126.173735125 60.6244192694 -0.000391278620618 -0.00200251746175 0.00204039301176 -101.054070441 1718.75699655
0.86013642065 0.050643536838 7.75058674568 -1.44611585078 -7.6144549051 0 -8.69069095352 0 -8.68001734207 8.69069095352 -90 -1.44611585078 1.07623604842 1.80266524651 143.344047388 -126.655952612 54.772459181 -0.000365461402589 -0.00192332379952 0.00195774444382 -100.755728466 1642.57533086
0.8601352388 0.052115343266 7.97292543051 -1.44635085467 -7.84060952414 0 -8.93724487324 0 -8.92641987771 8.93724487324 -90 -1.44635085467 1.09663534911 1.8151075199 142.831870545 -127.168129455 48.5902994201 -0.000334742356161 -0.00181334466914 0.00184398901396 -100.454154819 1541.4477328
0.86013401867 0.053634820948 8.20217534231 -1.44519134552 -8.07382325934 0 -9.19126099396 0 -9.18028085641 9.19126099396 -90 -1.44519134552 1.11743773462 1.82683590385 142.289967974 -127.710032026 41.9742446575 -0.000298176753955 -0.00166417796358 0.00169068567777 -100.150648086 1408.51634144
0.86013275927 0.055203204113 8.43847438785 -1.44276163721 -8.31419170276 0 -9.45287988561 0 -9.44174065438 9.45287988561 -90 -1.44276163721 1.13868818285 1.83800573525 141.71954708 -128.28045292 34.8225804114 -0.000254763612698 -0.00146604030689 0.00148801691346 -99.8468218121 1235.83967483
0.86013145958 0.056821763949 8.68195822838 -1.43926810917 -8.56179784067 0 -9.72224201448 0 -9.7109395056 9.72224201448 -90 -1.43926810917 1.1604441738 1.84884417537 141.12319968 -128.87680032 27.0161417921 -0.000203289463406 -0.00120667790329 0.00122368642101 -99.544683069 1013.49126025
0.86013011855 0.058491811281 8.93275928202 -1.43502515659 -8.81670903759 0 -9.99948764338 0 -9.98801739501 9.99948764338 -90 -1.43502515659 1.18277860579 1.85966949095 140.505446122 -129.494553878 18.4620312831 -0.000142650223083 -0.000873181372727 0.000884759751217 -99.2467312344 731.070095041
0.86012873508 0.060214699682 9.19100560351 -1.43048487579 -9.07897393095 0 -10.2847567592 0 -10.2731139757 10.2847567592 -90 -1.43048487579 1.20578282825 1.87091195137 139.873380004 -130.126619996 9.73934670486 -7.70888020317e-05 -0.000485865988553 0.000491944833149 -98.9560584604 405.786641177
0.86012730806 0.061991829113 9.45681998194 -1.42621604945 -9.34862771552 0 -10.5781890324 0 -10.5663685161 10.5781890324 -90 -1.42621604945 1.22956131683 1.88308955376 139.236508167 -130.763491833 3.40304843102 -2.75892405282e-05 -0.000179063975084 0.000181177254172 -98.6761202237 149.224651319
0.86012583632 0.063824650175 9.73032048146 -1.42269103227 -9.62572592662 0 -10.8799238231 0 -10.8679198927 10.8799238231 -90 -1.42269103227 1.25419789644 1.89662166453 138.603316338 -131.396683662 0.856386012003 -7.15181378828e-06 -4.79861243793e-05 4.85162414643e-05 -98.409400826 39.8556905257
0.86012431864 0.065714669123 10.011622885 -1.42011466554 -9.91036854876 0 -11.1901002441 0 -11.1779066372 11.1901002441 -90 -1.42011466554 1.27973169532 1.91168733188 137.978224026 -132.021775974 0.278919780153 -2.40423996893e-06 -1.66700481835e-05 1.68425646824e-05 -98.1565170258 13.7927212082
0.86012275379 0.067663453762 10.300843186 -1.41853060221 -10.202681162 0 -11.508857298 0 -11.4964670503 11.508857298 -90 -1.41853060221 1.30617613597 1.9283237478 137.363040371 -132.636959629 0.112747492254 -1.00169954692e-06 -7.16186449551e-06 7.23158984235e-06 -97.9170517348 5.90742975324
0.86012114042 0.069672640421 10.445177942 -1.41799289687 -10.3484800026 0 -11.6678982002 0 -11.8237394145 11.6678982002 -90 -1.41799289687 1.31941819759 1.93689700738 137.06270363 -132.93729637 0.0670678797098 -6.08393004838e-07 -4.44002836352e-06 4.48151692186e-06 -97.8023298649 3.65541902487
0.8632111495 0.043662940073 6.59194352367 -1.39796223064 -6.44198460208 0 -7.39878197734 0 -7.38871030343 7.39878197734 -90 -1.39796223064 0.956797375259 1.69404581137 145.612928099 -124.387071901 83.9412503444 -0.000429230581793 -0.00197772782797 0.0020237762571 -102.24596998 1822.32540126
0.86321027161 0.044923906408 6.78050089418 -1.40581216202 -6.63314412297 0 -7.60865056993 0 -7.59844239615 7.60865056993 -90 -1.40581216202 0.975506446953 1.71112748736 145.244416108 -124.755583892 78.7471658903 -0.000418566931242 -0.00197465148737 0.00201853211972 -101.968278227 1808.61732563
0.86320936427 0.046227181334 6.97522620344 -1.41228739982 -6.83073286535 0 -7.8252340962 0 -7.81488625511 7.8252340962 -90 -1.41228739982 0.994501230854 1.72731893871 144.849212716 -125.150787284 73.4326117587 -0.000405212186775 -0.00195946156174 0.00200092786828 -101.683846248 1784.63548435
0.86320842672 0.047573848517 7.17625730432 -1.41732338008 -7.0348787293 0 -8.04867034441 0 -8.03817959389 8.04867034441 -90 -1.41732338008 1.01379161512 1.74259224971 144.425944361 -125.574055639 67.9666880338 -0.000388857460649 -0.00192955797708 0.00196835719654 -101.393242788 1748.15469704
0.86320745818 0.048965019075 7.38373275693 -1.42087344673 -7.24570571959 0 -8.27909752945 0 -8.26846054152 8.27909752945 -90 -1.42087344673 1.03339180986 1.75693935591 143.973394685 -126.026605315 62.3114118134 -0.00036914038565 -0.00188172684136 0.00191759900733 -101.097169018 1696.4232172
0.86320645787 0.050401832792 7.59779142515 -1.42291528009 -7.4633328734 0 -8.51665413133 0 -8.50586747831 8.51665413133 -90 -1.42291528009 1.05332125793 1.7703777478 143.490611722 -126.509388278 56.4178597162 -0.000345616702076 -0.0018118992954 0.00184457422867 -100.796485262 1625.95353197
0.86320542496 0.051885459468 7.8185719804 -1.42345927866 -7.68787296395 0 -8.7614787295 0 -8.75053886681 8.7614787295 -90 -1.42345927866 1.07360576555 1.78295764805 142.977058428 -127.022941572 50.2166349228 -0.000317689367854 -0.00171463933251 0.00174382811848 -100.492245612 1532.07846859
0.86320435863 0.053417100461 8.04621229381 -1.4225599107 -7.91943085071 0 -9.01370983172 0 -9.00261307673 9.01370983172 -90 -1.4225599107 1.094278981 1.7947714202 142.432827908 -127.567172092 43.5975196107 -0.00028445935158 -0.00158211115717 0.00160748611416 -100.185745541 1408.03943372
0.86320325801 0.054997990433 8.2808486955 -1.42033199234 -8.15810121775 0 -9.27348570622 0 -9.26222821285 9.27348570622 -90 -1.42033199234 1.11538448847 1.80596672517 141.858961469 -128.141038531 36.4548605864 -0.000244994677654 -0.00140531372971 0.00142651455281 -99.8785928655 1246.11411991
0.86320212222 0.056629399353 8.52261507643 -1.41697058759 -8.40396604733 0 -9.5409442157 0 -9.52952194174 9.5409442157 -90 -1.41697058759 1.13697816838 1.81676190833 141.257860563 -128.742139437 28.675669791 -0.000198233995242 -0.0011733216562 0.00118995395225 -99.5727877923 1036.96122888
0.86320095035 0.058312634807 8.77164183031 -1.412776278 -8.65709163964 0 -9.81622265997 0 -9.8046313288 9.81622265997 -90 -1.412776278 1.15913102033 1.82746479764 140.633827663 -129.366172337 20.1365910889 -0.000142962474071 -0.000873048651278 0.000884679273197 -99.270819734 769.396848038
0.86319974145 0.060049044662 9.02805464617 -1.40818667388 -8.9175251245 0 -10.0994576326 0 -10.0876926861 10.0994576326 -90 -1.40818667388 1.18193250808 1.83849529897 139.993751982 -130.006248018 11.1914162025 -8.14070623956e-05 -0.000512220341801 0.000518650461674 -98.9757823249 450.450810394
0.86319849457 0.061840020166 9.29197339885 -1.40377451805 -9.18529673055 0 -10.3907848972 0 -10.3788414375 10.3907848972 -90 -1.40377451805 1.2054881666 1.8503774406 139.347273671 -130.652726329 4.17861024202 -3.11116011189e-05 -0.000201563160638 0.000203950492752 -98.6912569449 176.96008877
0.8631972087 0.063686999564 9.56351229429 -1.40005905234 -9.46045008898 0 -10.6903392956 0 -10.6782120157 10.6903392956 -90 -1.40005905234 1.22988920659 1.86357280884 138.703743845 -131.296256155 1.04981602032 -8.04247553126e-06 -5.38637762604e-05 5.44609880928e-05 -98.4200871237 47.1613224699
0.8631958828 0.065591472334 9.84278207352 -1.39729166402 -9.74307314312 0 -10.9982546918 0 -10.9859377923 10.9982546918 -90 -1.39729166402 1.25518154866 1.87830069827 138.068438829 -131.931561171 0.320054843084 -2.53094566323e-06 -1.75286429545e-05 1.77104561249e-05 -98.1631819267 15.2911294986
0.8631945158 0.067554984154 10.1298926357 -1.39552832282 -10.033284079 0 -11.3146639706 0 -11.3021510575 11.3146639706 -90 -1.39552832282 1.28137989159 1.89460820132 137.443443439 -132.556556561 0.125937962949 -1.02652714204e-06 -7.33553619321e-06 7.40702707031e-06 -97.9201694139 6.38082714278
0.86319310658 0.069579142764 10.2731765884 -1.39490550353 -10.1780349694 0 -11.4725352845 0 -11.6269830651 11.4725352845 -90 -1.39490550353 1.29450031517 1.90302230013 137.138370663 -132.861629337 0.0745194601313 -6.2014587536e-07 -4.52493654539e-06 4.56723457353e-06 -97.8038079633 3.92938602
0.86603671712 0.043390675916 6.46078666826 -1.37482042205 -6.31279567101 0 -7.24925836151 0 -7.23910134091 7.24925836151 -90 -1.37482042205 0.936462690497 1.66346711275 145.740630228 -124.259369772 85.8611924934 -0.000398426350085 -0.00182926868797 0.00187216131476 -102.288351925 1790.59090062
0.86603597636 0.044660984486 6.64813826713 -1.38312661643 -6.50264800705 0 -7.45777563606 0 -7.44748038749 7.45777563606 -90 -1.38312661643 0.955127629002 1.68087542379 145.374193173 -124.625806827 80.5722327268 -0.000388808039047 -0.00182767849227 0.00186858285046 -102.010174141 1779.01831365
0.86603521075 0.045973901139 6.84161582281 -1.39003577119 -6.69889585869 0 -7.67296465574 0 -7.66252799932 7.67296465574 -90 -1.39003577119 0.974068797053 1.69736537455 144.980596474 -125.019403526 75.1735422703 -0.000376743739551 -0.00181525279766 0.00185394194808 -101.724891077 1757.66110547
0.86603441965 0.047330514148 7.04135607628 -1.39548031577 -6.90166624097 0 -7.89496194592 0 -7.88438063723 7.89496194592 -90 -1.39548031577 0.99329570495 1.71290622499 144.558409451 -125.441590549 69.6346874021 -0.000361958073355 -0.00178967097593 0.00182591299562 -101.433082979 1724.39799311
0.86603360243 0.048731938734 7.24749653837 -1.39940996517 -7.11108235902 0 -8.12390434796 0 -8.11317506845 8.12390434796 -90 -1.39940996517 1.01282198895 1.72748654905 144.106348905 -125.893651095 63.9183969113 -0.000344129178314 -0.00174806868226 0.00178162597406 -101.135460681 1676.60914537