TITLE = "Electromagnetic Field"
VARIABLES = X Y E ER EI EvR EvI EvR' EvI' Ev EvPhase EpR EpI Ep EpPhase EpToEvPhaseShift elConductivity Jr Ji J Jphase QJ
ZONE N=282, E=248, F=FEPOINT, ET=QUADRILATERAL
0.65934248589 0.049972057413 23.4756415814 -6.01166263263 -22.6928548237 0 -28.1101922321 0 -29.9927284571 28.1101922321 -90 -6.01166263263 5.41733740842 8.09244290714 137.976785573 -132.023214427 63.1742712035 -0.00225377413507 -0.00850755812128 0.00880102511295 -104.837640989 17407.8519822
0.65950023465 0.050389886971 23.5622828415 -6.00322031759 -22.784676434 0 -28.2033459887 0 -30.1937872363 28.2033459887 -90 -6.00322031759 5.41866955467 8.08706868873 137.929701145 -132.070298855 62.0792864743 -0.00216817522254 -0.00822733563716 0.00850824132727 -104.76091288 17230.5374304
0.65966429229 0.050787803963 23.7342899122 -5.98583783944 -22.9670485534 0 -28.3879493672 0 -30.3812626318 28.3879493672 -90 -5.98583783944 5.42090081379 8.0756710299 137.835314885 -132.164685115 59.8854792113 -0.00200393346915 -0.00768739258452 0.00794429729868 -104.608132177 16865.3297337
0.65983444364 0.051168486156 23.8963223774 -5.9682227583 -23.1390076608 0 -28.56118236 0 -30.5567805661 28.56118236 -90 -5.9682227583 5.42217469923 8.06347942855 137.744585582 -132.255414418 57.7771790991 -0.00185970422589 -0.00720886067753 0.007444881183 -104.463249783 16494.6116609
0.66001049713 0.05153414929 24.0494942728 -5.95039011602 -23.3017217022 0 -28.724305904 0 -30.7216884077 28.724305904 -90 -5.95039011602 5.42258420183 8.05056509609 137.657085617 -132.342914383 55.7407349072 -0.0017317089985 -0.00678026454041 0.00699791902823 -104.325269689 16117.9758299
0.66019228197 0.051886626736 24.1947281376 -5.93235274564 -23.4561573954 0 -28.8783645901 0 -30.8771034012 28.8783645901 -90 -5.93235274564 5.42220719468 8.03698786891 137.572458608 -132.427541392 53.7648226734 -0.00161695273009 -0.00639236115547 0.00659369943182 -104.193375482 15735.0271641
0.66037964457 0.052227433429 24.3327872256 -5.91412236837 -23.6031141906 0 -29.0242233307 0 -31.0239518017 29.0242233307 -90 -5.91412236837 5.42110914008 8.02279874279 137.490409855 -132.509590145 51.840127255 -0.00151304542 -0.00603766467659 0.00622436714467 -104.066896826 15345.4314249
0.66057244327 0.052557815725 24.4009161863 -5.90484711491 -23.6756729847 0 -29.0960493042 0 -31.1630000309 29.0960493042 -90 -5.90484711491 5.42037631945 8.01546623066 137.449507377 -132.550492623 50.8779973761 -0.00146295815884 -0.00586577743419 0.00604546040281 -104.004189554 15146.4996552
0.67254266707 0.048134535423 22.1154167039 -5.68911293988 -21.3711214092 0 -26.3947757149 0 -26.1721541097 26.3947757149 -90 -5.68911293988 5.02365430564 7.59011989267 138.596251173 -131.403748827 67.2577982567 -0.00224373594584 -0.0084262657814 0.00871988727203 -104.911365267 16386.0183692
0.67271340176 0.048569914789 22.1987816657 -5.68125643276 -21.4594381626 0 -26.4846211767 0 -26.3645599402 26.4846211767 -90 -5.68125643276 5.02518301409 7.58524556427 138.548121882 -131.451878118 66.1523275349 -0.00216220082581 -0.00816315535862 0.00844467114207 -104.833345114 16234.8648897
0.67289078793 0.04898624248 22.3643525291 -5.66507434729 -21.634915761 0 -26.662771576 0 -26.5450088078 26.662771576 -90 -5.66507434729 5.02785581504 7.57490077103 138.451554991 -131.548445009 63.9402942712 -0.00200573824011 -0.00765625733333 0.00791463612027 -104.677990999 15923.6209322
0.67307461727 0.049386003914 22.5207906183 -5.64863556431 -21.80085845 0 -26.8305149154 0 -26.7148745581 26.8305149154 -90 -5.64863556431 5.02965646536 7.56380549744 138.358366228 -131.641633772 61.8157435145 -0.0018679937574 -0.00720613148738 0.00744431967982 -104.530366726 15607.2459114
0.673264703 0.049771253324 22.6691098267 -5.63196050617 -21.9583281413 0 -26.9889998252 0 -26.8752948476 26.9889998252 -90 -5.63196050617 5.03067168388 7.55203052306 138.268155268 -131.731844732 59.7651395559 -0.00174545996244 -0.00680220935613 0.00702259324375 -104.3895173 15285.4254667
0.6734608775 0.050143688484 22.8101429323 -5.61506523143 -22.1081971152 0 -27.1391694209 0 -27.0272123867 27.1391694209 -90 -5.61506523143 5.03097230568 7.53963317323 138.180592254 -131.819407746 57.7772772573 -0.00163535369454 -0.00643597220147 0.00664049914103 -104.254660153 14957.8478079
0.67366298895 0.050504710348 22.9445731931 -5.5979631368 -22.251181106 0 -27.2817975553 0 -27.1714081279 27.2817975553 -90 -5.5979631368 5.03061644922 7.52666060853 138.095407736 -131.904592264 55.842992757 -0.00153545171912 -0.00610051554384 0.00629078622191 -104.125152903 14624.2572427
0.67387089611 0.050855469064 22.5953686689 -5.48041218827 -21.9206588138 0 -26.8228529036 0 -27.3085274684 26.8228529036 -90 -5.48041218827 4.9021940898 7.35334107945 138.222746097 -131.777253903 55.5738047285 -0.00146754771599 -0.00586882836273 0.00604953541607 -104.038347592 14132.8752883
0.67408447086 0.051196912952 21.8047507771 -5.24992095435 -21.1632925962 0 -25.80340847 0 -27.4391060783 25.80340847 -90 -5.24992095435 4.64011587381 7.00659489445 138.528269598 -131.471730402 56.0887099168 -0.00138845670119 -0.00559641993912 0.00576608752715 -103.932141107 13332.510361
0.67430359136 0.051529815603 21.9207529245 -5.23541369669 -21.2863663189 0 -25.9269675143 0 -27.5635861756 25.9269675143 -90 -5.23541369669 4.64060119536 6.99605327665 138.44661881 -131.55338119 54.3371599784 -0.00126046329445 -0.00512326430462 0.00527604313942 -103.817869841 13053.9994306
0.68499833264 0.046400640866 19.6106297022 -5.08901723569 -18.9388041848 0 -23.2475647351 0 -23.045773663 23.2475647351 -90 -5.08901723569 4.30876055034 6.66841578007 139.781203181 -130.218796819 75.131131085 -0.00219678325625 -0.00817410513945 0.00846415534709 -105.043961214 14411.4439277
0.68518184538 0.046852509281 19.6905139973 -5.08295191555 -19.0231112778 0 -23.334523498 0 -23.2303729718 23.334523498 -90 -5.08295191555 4.31141222023 6.66550403221 139.729952207 -130.270047793 73.9892458702 -0.00212337120976 -0.00794401063389 0.00822290798382 -104.963530973 14305.7954193
0.68537231989 0.047286141724 19.8491957752 -5.07035673415 -19.1906477377 0 -23.5070123638 0 -23.4043683612 23.5070123638 -90 -5.07035673415 4.3163646261 6.6591094017 139.627062421 -130.372937579 71.710204504 -0.00198240280685 -0.00750061381228 0.00775817605687 -104.803398815 14087.8554249
0.68556955671 0.047703841825 19.9997488433 -5.05732048594 -19.3497401717 0 -23.6701763248 0 -23.5689270922 23.6701763248 -90 -5.05732048594 4.32043615304 6.65182845442 139.527276937 -130.472723063 69.5246233158 -0.00185759340721 -0.00710499553529 0.00734382408708 -104.650695696 13864.7685266
0.68577337555 0.048107511162 20.1430270367 -5.04388236845 -19.5012779189 0 -23.8249892778 0 -23.7250149126 23.8249892778 -90 -5.04388236845 4.32371135884 6.64374407277 139.4302324 -130.5697676 67.4188928138 -0.00174596791155 -0.00674834135379 0.00697055439912 -104.50454464 13636.423994
0.68598361339 0.04849871934 20.2797318344 -5.03007475992 -19.6459916464 0 -23.9722514253 0 -23.8734314347 23.9722514253 -90 -5.03007475992 4.32625977884 6.63492449683 139.335630693 -130.664369307 65.381849414 -0.00164516147419 -0.00642354112101 0.00663087711757 -104.364226068 13402.7175694
0.68620012146 0.048878759565 20.4104388615 -5.01592523106 -19.784480928 0 -24.1126197984 0 -24.0148384467 24.1126197984 -90 -5.01592523106 4.3281388704 6.62542669436 139.243229705 -130.756770295 63.4043606191 -0.00155327823295 -0.00612481319907 0.00631870943814 -104.229148582 13163.5750959
0.68642276011 0.049248691033 20.5356212065 -5.00145781441 -19.9172385489 0 -24.2466349148 0 -24.1497820711 24.2466349148 -90 -5.00145781441 4.3293963659 6.61529879777 139.152834205 -130.847165795 61.4788390004 -0.0014688061289 -0.00584750131187 0.00602915659188 -104.098823878 12918.9362485
0.68665140182 0.049609385588 20.6556656318 -4.98669427339 -20.0446673444 0 -24.3747394911 0 -24.2787152518 24.3747394911 -90 -4.98669427339 4.33007214672 6.60458224095 139.064290146 -130.935709854 59.5989405975 -0.00139053320166 -0.00558784087875 0.00575826396052 -103.97284972 12668.7529057
0.68688592427 0.049961551974 20.769923765 -4.97329917919 -20.165698687 0 -24.4970337265 0 -24.4020112209 24.4970337265 -90 -4.97329917919 4.33133503955 6.59529923641 138.979458038 -131.020541962 57.8299875148 -0.00126447107691 -0.00512473867228 0.00527843477775 -103.856227944 12427.0883072
0.69669475289 0.044772422594 17.5288569419 -4.58019297521 -16.919883305 0 -20.6536844808 0 -20.4713081544 20.6536844808 -90 -4.58019297521 3.7338011758 5.90949055547 140.841865614 -129.158134386 82.3725670765 -0.00210690005394 -0.00778253314373 0.0080626852775 -105.149434688 12634.1243877
0.69689082074 0.045239699856 17.6056267087 -4.57576539112 -17.0005764887 0 -20.737914378 0 -20.6488802531 20.737914378 -90 -4.57576539112 3.73733788932 5.90829778491 140.788018724 -129.211981276 81.1828206131 -0.00204135891928 -0.00758231424447 0.00785231219682 -105.067235479 12559.0695495
0.69709413214 0.045689510165 17.7581389727 -4.566448572 -17.1609510791 0 -20.9050380314 0 -20.8169775216 20.9050380314 -90 -4.566448572 3.74408695235 5.90535953461 140.679867117 -129.320132883 78.8133986646 -0.00191539071608 -0.00719628157374 0.00744683366358 -104.903594127 12403.8105005
0.69730449769 0.046123986248 17.903355716 -4.55654396265 -17.3137892771 0 -21.0637513197 0 -20.9765972906 21.0637513197 -90 -4.55654396265 3.74996204261 5.90143286514 140.574533629 -129.425466371 76.5437853151 -0.00180323179052 -0.00685016042707 0.00708353448163 -104.747053927 12243.5547724
0.69752174472 0.046544886159 18.0420018154 -4.54610433841 -17.4598412951 0 -21.2148853946 0 -21.1285638646 21.2148853946 -90 -4.54610433841 3.75504409951 5.89660840735 140.471691128 -129.528308872 74.3601620727 -0.00170237834471 -0.00653662548862 0.0067546771854 -104.596815062 12078.2931457
0.69774571579 0.046953658988 18.1746727147 -4.5351739719 -17.5997233499 0 -21.3591233543 0 -21.2735590975 21.3591233543 -90 -4.5351739719 3.75940000442 5.89096153374 140.371072729 -129.628927271 72.2512295428 -0.00161083747855 -0.0062497659967 0.00645402634537 -104.452220507 11908.023949
0.69797626606 0.047351496619 18.3018568683 -4.52379082888 -17.7339408594 0 -21.4970261538 0 -21.4121466974 21.4970261538 -90 -4.52379082888 3.76308529443 5.88455571957 140.272463343 -129.727536657 70.2077140509 -0.00152700629706 -0.00598476146196 0.00617650297249 -104.312729708 11732.7566834
0.6982132582 0.047739372713 18.423955694 -4.51198804626 -17.8629091142 0 -21.6290554729 0 -21.5447910815 21.6290554729 -90 -4.51198804626 3.76614635872 5.87744503348 140.175691168 -129.824308832 68.2218287368 -0.00144960318043 -0.00573772232176 0.00591801210236 -104.177895727 11552.4938542
0.69845656605 0.048118087183 18.5412970288 -4.49979532073 -17.9869671606 0 -21.7555892978 0 -21.6718770773 21.7555892978 -90 -4.49979532073 3.76862213726 5.86967625138 140.08062273 -129.91937727 66.287134316 -0.00137760060816 -0.00550550675915 0.00567524798318 -104.047350133 11367.2555912
0.69870606745 0.048488287774 18.652400925 -4.48861311776 -18.104251765 0 -21.8756045546 0 -21.7937211207 21.8756045546 -90 -4.48861311776 3.77135278962 5.86286138199 139.989784262 -130.010215738 64.4743318301 -0.00125623194701 -0.00506476347719 0.00521823582328 -103.926465801 11188.2364809
0.70763995221 0.043248762828 15.786690412 -4.14828303666 -15.2319145636 0 -18.5012291348 0 -18.3362984028 18.5012291348 -90 -4.14828303666 3.26931457118 5.28188505085 141.781608152 -128.218391848 89.0881958246 -0.00199312067471 -0.00731811411755 0.00758467877963 -105.23655819 11088.8122025
0.70784833472 0.043730382898 15.8606869576 -4.14532850642 -15.3093753344 0 -18.5829131412 0 -18.507551871 18.5829131412 -90 -4.14532850642 3.27353780676 5.28218320854 141.725693125 -128.274306875 87.8431326291 -0.00193491377854 -0.00714435231698 0.00740174350579 -105.153103601 11035.0595512
0.7080642178 0.044195258329 16.0077025251 -4.1389595842 -15.4633413065 0 -18.7450224639 0 -18.6702768974 18.7450224639 -90 -4.1389595842 3.2816811574 5.28224051486 141.61334329 -128.38665671 85.3682702885 -0.00182292359389 -0.00680908238645 0.00704888468452 -104.986967992 10923.4364065
0.7082874228 0.04464536181 16.1481181034 -4.13188751304 -15.6105294802 0 -18.8994969917 0 -18.8253303088 18.8994969917 -90 -4.13188751304 3.28896751143 5.28123406443 141.503519455 -128.496480545 83.0000973077 -0.00172266285667 -0.00650701426849 0.00673118897513 -104.827593704 10807.074643
0.70851778521 0.045082316986 16.2825536299 -4.12417445874 -15.7515769883 0 -19.0470502949 0 -18.9734194588 19.0470502949 -90 -4.12417445874 3.29547330657 5.2792588233 141.395929723 -128.604070277 80.7245250369 -0.00163203551422 -0.00623207424005 0.00644223384413 -104.674255165 10686.0230394
0.70875515375 0.045507460069 16.4115180764 -4.11587301307 -15.8870068094 0 -19.1882687456 0 -19.1151288073 19.1882687456 -90 -4.11587301307 3.30126193613 5.27639433088 141.290337636 -128.709662364 78.5299145726 -0.001549368807 -0.00597935122666 0.00617683250468 -104.526355752 10560.3166106
0.708999388 0.045921888034 16.5354286407 -4.10702848308 -16.0172474635 0 -19.3236337007 0 -19.2509409428 19.3236337007 -90 -4.10702848308 3.30638623727 5.27270799301 141.186554485 -128.813445515 76.4067146158 -0.00147331434012 -0.00574483339719 0.00593075293387 -104.383404201 10429.9992567
0.70925035348 0.046326494412 16.6546280056 -4.09768049913 -16.1426507786 0 -19.4535413102 0 -19.3812526951 19.4535413102 -90 -4.09768049913 3.31089053153 5.26825757323 141.084431385 -128.915568615 74.3469205335 -0.00140279353979 -0.00552528592053 0.00570058504009 -104.244993857 10295.1077042
0.70950792582 0.046722011721 16.7693955865 -4.08786445715 -16.2635034136 0 -19.5783155679 0 -19.506392545 19.5783155679 -90 -4.08786445715 3.31481215435 5.26309324256 140.983854999 -129.016145001 72.3439149784 -0.00133694098134 -0.00531809652634 0.00548357637813 -104.110789357 10155.6947452
0.70977198347 0.047109030546 16.8775804218 -4.0787428032 -16.377307013 0 -19.6960323726 0 -19.6266299417 19.6960323726 -90 -4.0787428032 3.31872535957 5.25847844498 140.88796001 -129.11203999 70.4739025266 -0.00122156297679 -0.00490304615679 0.00505293109305 -103.986473725 10020.6718049
0.71785903452 0.041826167035 14.3183441359 -3.78080982928 -13.8101548093 0 -16.7018674596 0 -16.5522636403 16.7018674596 -90 -3.78080982928 2.89171265033 4.75999498783 142.609072995 -127.390927005 95.3515719417 -0.00186858952318 -0.00682521469427 0.00707638339752 -105.312409733 9766.6964366
0.71807947123 0.042321103329 14.3898749211 -3.77916520909 -13.8847351394 0 -16.7811969204 0 -16.7178361791 16.7811969204 -90 -3.77916520909 2.89646178106 4.76157839391 142.551595087 -127.448404913 94.0461976063 -0.00181703424122 -0.00667452530202 0.00691744361937 -105.2280939 9728.19129366
0.71830764439 0.042799971711 14.5320010226 -3.7754172504 -14.0329885067 0 -16.9386626317 0 -16.8756778321 16.9386626317 -90 -3.7754172504 2.90567412499 4.76421655103 142.436064468 -127.563935532 91.4559068962 -0.00171772762506 -0.00638351646243 0.00661059577041 -105.060241997 9647.80808174
0.71854338622 0.04326459541 14.6681117474 -3.77087645764 -14.1751016659 0 -17.0891540396 0 -17.0265285575 17.0891540396 -90 -3.77087645764 2.91405237374 4.76573652923 142.322767889 -127.677232111 88.9797089597 -0.0016283529556 -0.0061200777132 0.00633300679309 -104.898811488 9562.99313359
0.71878654059 0.043716472527 14.7987407572 -3.7656111132 -14.3116190286 0 -17.2332870645 0 -17.1709984126 17.2332870645 -90 -3.7656111132 2.9216680359 4.76623506036 142.211447398 -127.788552602 86.6030951615 -0.00154715831947 -0.00587916872064 0.00607934220007 -104.743146835 9473.81524623
0.71903696252 0.044156833834 14.9243258064 -3.75967932993 -14.4429869721 0 -17.3715675677 0 -17.3095908375 17.3715675677 -90 -3.75967932993 2.92858059563 4.7657936201 142.10189586 -127.89810414 84.3140064463 -0.00147274317596 -0.00565670988522 0.00584528926299 -104.592708589 9380.32293094
0.71929451627 0.044586687641 15.0452252961 -3.75313136431 -14.5695707077 0 -17.5044104926 0 -17.4427209234 17.5044104926 -90 -3.75313136431 2.93483978489 4.7644816093 141.993949993 -128.006050007 82.1025552959 -0.00140397665554 -0.00544936510158 0.00562732520807 -104.447052313 9282.57389692
0.71955907043 0.04500685261 15.1617333365 -3.74601129023 -14.6916696907 0 -17.6321571594 0 -17.5707292698 17.6321571594 -90 -3.74601129023 2.94048746878 4.76235880074 141.887483018 -128.112516982 79.9605103785 -0.00133995514413 -0.00525445142711 0.00542261842657 -104.305809778 9180.6277364
0.71983050264 0.045417998275 15.2740892275 -3.73835845156 -14.8095272582 0 -17.7550862794 0 -17.6938974732 17.7550862794 -90 -3.73835845156 2.94555902123 4.75947730407 141.782401012 -128.217598988 77.8809590104 -0.00127995145324 -0.00506979650216 0.00522887720722 -104.1686773 9074.54402683
0.72010869228 0.045820661799 15.3795982247 -3.73112322966 -14.9201349662 0 -17.8705497534 0 -17.8124558815 17.8705497534 -90 -3.73112322966 2.95041478723 4.75680548238 141.68237877 -128.31762123 75.945610559 -0.00117122436633 -0.00468181134283 0.00482609122285 -104.041598243 8971.40601372
0.72738913688 0.040499466283 13.0718279441 -3.46703400541 -12.6036622383 0 -15.1860169294 0 -15.0496885268 15.1860169294 -90 -3.46703400541 2.58235469106 4.323139264 143.335742431 -126.664257569 101.217758557 -0.00174206228718 -0.00633281433388 0.00656805400047 -105.382071379 8643.04424992
0.7276213459 0.04100674945 13.1411639759 -3.46654597103 -12.6756775511 0 -15.2631807536 0 -15.2101494419 15.2631807536 -90 -3.46654597103 2.58750320245 4.32582775208 143.277162137 -126.722837863 99.8485928704 -0.00169642599517 -0.00620202545905 0.00642985910766 -105.29718775 8615.69595205
0.72786150935 0.04149859779 13.2789365191 -3.46511199213 -12.818842646 0 -15.4163710424 0 -15.3635557382 15.4163710424 -90 -3.46511199213 2.59752839642 4.33068405776 143.159377707 -126.840622293 97.1361896 -0.00160841747543 -0.00594921044406 0.00616280809389 -105.128198118 8558.19736549
0.72810947011 0.041976695161 13.411188745 -3.46281614647 -12.9564069078 0 -15.5631522643 0 -15.5105495002 15.5631522643 -90 -3.46281614647 2.60674535648 4.33438383911 143.043540785 -126.956459215 94.5459193042 -0.00152881407314 -0.00571929596631 0.00592010964807 -104.965297934 8496.59690774
0.72836508022 0.042442422586 13.5383826554 -3.45973033926 -13.0888380216 0 -15.704058587 0 -15.651659309 15.704058587 -90 -3.45973033926 2.61522056538 4.33702373035 142.929425745 -127.070574255 92.0624702424 -0.00145614693287 -0.00550807536793 0.00569730876787 -104.807896848 8430.94351682
0.72862820098 0.042896912495 13.6608967674 -3.45591606807 -13.2165188714 0 -15.8395283448 0 -15.7873207437 15.8395283448 -90 -3.45591606807 2.6230094734 4.33868552149 142.816853363 -127.183146637 89.6733945293 -0.00138924548427 -0.00531216134005 0.00549082156267 -104.655508808 8361.29572266
0.72889870125 0.043341090489 13.7790405022 -3.45142670792 -13.3397621026 0 -15.9699206695 0 -15.9178923702 15.9699206695 -90 -3.45142670792 2.63015856681 4.33943919727 142.705684545 -127.294315455 87.3684616603 -0.00132716284765 -0.00512878042918 0.00529771675301 -104.50773326 8287.71897901
0.72917645276 0.043775705379 13.8930674416 -3.4463092046 -13.4588236039 0 -16.095530709 0 -16.0436676916 16.095530709 -90 -3.4463092046 2.63670710509 4.33934531022 142.595813536 -127.404186464 85.139049391 -0.00126914120458 -0.00495570013898 0.00511563581122 -104.364238131 8210.27170652
0.72946133527 0.044201367934 14.003183368 -3.44060550499 -13.5739106169 0 -16.2165989723 0 -16.1648890342 16.2165989723 -90 -3.44060550499 2.64268835539 4.33845684485 142.487164855 -127.512835145 82.9779407004 -0.00121457084333 -0.00479111537377 0.00494267233442 -104.224749656 8129.01539214
0.72975322916 0.044618565455 14.1062516735 -3.43507871815 -13.6816037432 0 -16.3298948643 0 -16.2817540033 16.3298948643 -90 -3.43507871815 2.64829112106 4.33749287807 142.383881534 -127.616118466 80.9723747681 -0.00111269623685 -0.00443018099352 0.00456778136466 -104.095432389 8049.57377116
0.7362751502 0.039262412798 12.0059052722 -3.19782356517 -11.572192465 0 -13.8988476731 0 -13.773916877 13.8988476731 -90 -3.19782356517 2.32665520818 3.95472147289 143.974028755 -126.025971245 106.734870972 -0.0016191484414 -0.00585930406785 0.00607890598635 -105.44878668 7689.59585103
0.73651882803 0.039781142063 12.0732823632 -3.19835337254 -11.6419201367 0 -13.9740258254 0 -13.9297713428 13.9740258254 -90 -3.19835337254 2.33210568874 3.95836083693 143.914747796 -126.085252204 105.298688553 -0.00157869945617 -0.00574550977433 0.00595846176165 -105.363551182 7670.51148996
0.73677066329 0.040285028444 12.2071680951 -3.19895571952 -11.7805463602 0 -14.1232928267 0 -14.0791484263 14.1232928267 -90 -3.19895571952 2.34274646645 3.96512516784 143.795518052 -126.204481948 102.457525254 -0.00150059654452 -0.00552530685288 0.0057254594149 -105.193848922 7629.95589413
0.73703050894 0.040775625905 12.3359560123 -3.19864350859 -11.9140313112 0 -14.2666371154 0 -14.2226076602 14.2666371154 -90 -3.19864350859 2.35260580419 3.97070677272 143.677958794 -126.322041206 99.7480880026 -0.00142962937421 -0.00532420963638 0.00551281397416 -105.029916658 7585.69065637
0.73729822481 0.041254206341 12.460047999 -3.19749042778 -12.0427785851 0 -14.4045238701 0 -14.3606088992 14.4045238701 -90 -3.19749042778 2.36174528505 3.97520090063 143.561874893 -126.438125107 97.1544775076 -0.00136456681079 -0.00513870734578 0.00531680512443 -104.871224341 7537.763819
0.73757367817 0.041721810505 12.579772817 -3.19555976284 -12.1671179577 0 -14.537334353 0 -14.4935304826 14.537334353 -90 -3.19555976284 2.37021639526 3.97868851383 143.447113373 -126.552886627 94.6623118644 -0.00130440902203 -0.00496590639854 0.00513437074553 -104.717335409 7486.13543785
0.73785674229 0.042179286885 12.6953987002 -3.19290663524 -12.2873180453 0 -14.6653804546 0 -14.6216832963 14.6653804546 -90 -3.19290663524 2.37806240928 3.98123918301 143.333557867 -126.666442133 92.2609025542 -0.00124836177724 -0.00480349343556 0.00496306394899 -104.567890113 7430.86643698
0.73814729192 0.042627319159 12.8071451137 -3.18957968271 -12.4035981955 0 -14.7889181846 0 -14.7453211221 14.7889181846 -90 -3.18957968271 2.3853199891 3.98291336897 143.221122359 -126.778877641 89.9412496508 -0.0011957898185 -0.00464960983502 0.00480091938443 -104.422590124 7372.01329542
0.73844520889 0.043066463287 12.915189591 -3.18562244047 -12.5161353318 0 -14.9081556186 0 -14.864653162 14.9081556186 -90 -3.18562244047 2.39202028683 3.98376417139 143.109748659 -126.890251341 87.6958625754 -0.00114618278355 -0.00450275726433 0.00464635289668 -104.281189716 7309.64077902
0.7387503746 0.043497160063 13.0160360982 -3.1816336188 -12.6211785692 0 -15.0193931983 0 -14.9798494078 15.0193931983 -90 -3.1816336188 2.39821462905 3.98430010375 143.003978156 -126.996021844 85.6173912458 -0.00105105247831 -0.00416793817572 0.0042984238324 -104.150044394 7248.19457784
0.7445662614 0.038108161148 11.0877293185 -2.96551615984 -10.6837921873 0 -12.7970728993 0 -12.681876769 12.7970728993 -90 -2.96551615984 2.11328071202 3.64149966273 144.536033949 -125.463966051 111.937194475 -0.00150308539547 -0.00541514039058 0.00561987734657 -105.51439015 6878.88552909
0.74482108408 0.038637510435 11.1533513318 -2.96694168508 -10.7514733769 0 -12.8704328621 0 -12.8335710983 12.8704328621 -90 -2.96694168508 2.11895948525 3.64596021226 144.476390864 -125.523609136 110.433504521 -0.00146716859385 -0.00531587859116 0.00551463759507 -105.428963315 6866.12615362
0.74508425467 0.039152570472 11.2837540719 -2.96933603995 -10.8860386633 0 -13.0161052164 0 -12.9792841989 13.0161052164 -90 -2.96933603995 2.13006655305 3.65437193465 144.356397181 -125.643602819 107.462171917 -0.00139772166131 -0.00512355343297 0.00531079039295 -105.258863906 6838.50946851
0.74535563545 0.039654774117 11.4094224371 -2.97077590827 -11.0158572002 0 -13.1562758056 0 -13.1195054493 13.1562758056 -90 -2.97077590827 2.14041860538 3.66158376393 144.237809293 -125.762190707 104.630391421 -0.00133432194945 -0.00494711927749 0.00512391109113 -105.094229296 6807.41468268
0.74563509348 0.040145291507 11.5307073866 -2.97133542503 -11.1412785456 0 -13.2913511256 0 -13.2546362977 13.2913511256 -90 -2.97133542503 2.15007258007 3.66768870319 144.120460577 -125.879539423 101.92251188 -0.00127594738774 -0.00478368030936 0.00495092846342 -104.93458509 6772.94007942
0.74592250152 0.040625077902 11.6478954975 -2.97107851883 -11.2625876444 0 -13.4216638362 0 -13.3850064449 13.4216638362 -90 -2.97107851883 2.15907619179 3.67276613367 144.004222617 -125.995777383 99.3248176558 -0.00122176951897 -0.00463085910245 0.00478932399707 -104.779540583 6735.11598201
0.74621773698 0.041094909864 11.7612200533 -2.97006105759 -11.3800159075 0 -13.5474855517 0 -13.5108862536 13.5474855517 -90 -2.97006105759 2.16746964414 3.67688453683 143.889000229 -126.110999771 96.825687014 -0.00117111502672 -0.00448669989578 0.00463702800093 -104.628773908 6693.97228485
0.74652067736 0.041555410316 11.8708715425 -2.9683324974 -11.4937517713 0 -13.6690388733 0 -13.6324957597 13.6690388733 -90 -2.9683324974 2.17528710199 3.68010367714 143.774725734 -126.225274266 94.414605806 -0.0011234375881 -0.00434960313663 0.00449234873883 -104.482018123 6649.49479258
0.74683120644 0.042007084078 11.9770034904 -2.96593720919 -11.6039464878 0 -13.7865041654 0 -13.7500160164 13.7865041654 -90 -2.96593720919 2.18255767758 3.68247624077 143.66135698 -126.33864302 92.0837521391 -0.00107830927959 -0.00421832157197 0.00435396617692 -104.339053682 6601.74570339
0.74714920656 0.042450328544 12.0758276542 -2.96333002655 -11.7065820132 0 -13.8958043694 0 -13.8635935563 13.8958043694 -90 -2.96333002655 2.18922235622 3.68433258109 143.553769108 -126.446230892 89.9311367657 -0.000989618149283 -0.00390810968062 0.00403146255225 -104.206403557 6554.22088104
0.75231326993 0.037029641673 10.2910231639 -2.76375749871 -9.91295959192 0 -11.8464175536 0 -11.7395124341 11.8464175536 -90 -2.76375749871 1.93345796165 3.37295164088 145.032860006 -124.967139994 116.848400282 -0.00139549219604 -0.00500534063407 0.00519623345259 -105.579776789 6186.35684102
0.752578895 0.037568861678 10.3550659825 -2.76597328431 -9.97880275907 0 -11.9181127624 0 -11.887439797 11.9181127624 -90 -2.76597328431 1.93931000332 3.37812557419 144.973132853 -125.026867147 115.278949258 -0.00136353722953 -0.00491855604938 0.00510406652124 -105.494281516 6178.61480941
0.75285304805 0.038094310758 10.4823343682 -2.76994874079 -10.1097204462 0 -12.0604922128 0 -12.0298154592 12.0604922128 -90 -2.76994874079 1.95077176663 3.38796818317 144.852935154 -125.147064846 112.180888319 -0.00130166474757 -0.00475018410895 0.00492530606197 -105.324026101 6161.26449556
0.7531355998 0.03860730872 10.6051834772 -2.77293971993 -10.2362326831 0 -12.1977364998 0 -12.1670687195 12.1977364998 -90 -2.77293971993 1.96150381669 3.39660043301 144.733892904 -125.266107096 109.228500651 -0.00124490276139 -0.00459496346457 0.00476062232827 -105.158944802 6140.5372168
0.75342642382 0.039108930708 10.7239207299 -2.775019822 -10.3586430558 0 -12.330201811 0 -12.2995510133 12.330201811 -90 -2.775019822 1.97155875515 3.40411250184 144.615865758 -125.384134242 106.405902597 -0.00119239832829 -0.00445048698339 0.00460746081647 -104.998614477 6116.53719413
0.75372539785 0.039600052158 10.8387966128 -2.77625278165 -10.4771983302 0 -12.4581791016 0 -12.427550389 12.4581791016 -90 -2.77625278165 1.98098077142 3.41058168641 144.498748018 -125.501251982 103.700660846 -0.00114347851114 -0.00431484929007 0.00446379989267 -104.84268687 6089.40806266
0.75403240299 0.040081382473 10.9500144898 -2.77669449889 -10.5920982013 0 -12.5819053961 0 -12.5513025153 12.5819053961 -90 -2.77669449889 1.98980719482 3.41607494079 144.382464146 -125.617535854 101.101765947 -0.00109758668506 -0.0041864496224 0.00432794345517 -104.690875353 6059.23545054
0.75434731923 0.040553487831 11.0577400272 -2.77639462772 -10.703504731 0 -12.701574578 0 -12.6709985324 12.701574578 -90 -2.77639462772 1.99806984705 3.42065094176 144.266963461 -125.733036539 98.5987490492 -0.00105426553411 -0.00406395901602 0.00419848453575 -104.542942291 6026.02893578
0.75467003205 0.041016825289 11.1621061747 -2.77539782646 -10.8115472542 0 -12.8173431744 0 -12.7867953989 12.8173431744 -90 -2.77539782646 2.00579592011 3.424361605 144.152218604 -125.847781396 96.182384658 -0.00101314439814 -0.00394629487442 0.00407427724321 -104.398692603 5989.79052124
0.75500042462 0.041471751691 11.2590876573 -2.77403309271 -10.9119930819 0 -12.9248306481 0 -12.8988195635 12.9248306481 -90 -2.77403309271 2.01283756622 3.42738604905 144.043380613 -125.956619387 93.9554837984 -0.000930474732278 -0.00365887360865 0.00377533598683 -104.264797999 5953.22114522
0.7595665725 0.036019840892 9.59467928478 -2.58732404673 -9.23924211107 0 -11.0196430672 0 -10.919791719 11.0196430672 -90 -2.58732404673 1.78040095615 3.14073279228 145.474309972 -124.525690028 121.495233691 -0.00129707547652 -0.00463185391289 0.0048100398143 -105.645289967 5591.67349006
0.75984264147 0.036568258168 9.65729477781 -2.59024015045 -9.30342711401 0 -11.0898126097 0 -11.0642979125 11.0898126097 -90 -2.59024015045 1.78638549572 3.14653109722 145.414723207 -124.585276793 119.860875327 -0.00126855812613 -0.00455571693569 0.004729043727 -105.559824341 5587.90124161
0.76012740981 0.037103390547 9.78173004965 -2.59561688142 -9.43105400583 0 -11.2291731834 0 -11.2036269607 11.2291731834 -90 -2.59561688142 1.79811917754 3.15762592295 145.2947738 -124.7052262 116.637815436 -0.0012132643811 -0.00440780105649 0.00457173622886 -105.389605081 5578.67910124
0.76042075574 0.03762645212 9.90202134349 -2.59998688574 -9.55457296903 0 -11.3637199168 0 -11.3381563132 11.3637199168 -90 -2.59998688574 1.80914694774 3.16750489886 145.17574501 -124.82425499 113.568021291 -0.00116231299125 -0.00427083641255 0.00442617906637 -105.224283108 5566.27000487