TITLE = "Electromagnetic Field"
VARIABLES = X Y E ER EI EvR EvI EvR' EvI' Ev EvPhase EpR EpI Ep EpPhase EpToEvPhaseShift elConductivity Jr Ji J Jphase QJ
ZONE N=279, E=245, F=FEPOINT, ET=QUADRILATERAL
0.88941967808 0.025880507496 3.4367539871 -0.837626217023 -3.33311570282 0 -3.84697482669 0 -3.86435309562 3.84697482669 -90 -0.837626217023 0.513859123871 0.982684526504 148.472104866 -121.527895134 25.1136027329 -2.75142605284e-06 -1.09485844587e-05 1.12890144376e-05 -104.106555325 148.311871326
0.88948947098 0.02560432399 3.42110275306 -0.83384719549 -3.3179275007 0 -3.82944592137 0 -3.82203323848 3.82944592137 -90 -0.83384719549 0.511518420664 0.978239357495 148.473228583 -121.526771417 19.3897554019 -2.01114809187e-06 -8.00263866231e-06 8.25148121334e-06 -104.107173355 113.842670772
0.88954763172 0.025374171069 3.38907358923 -0.826108516062 -3.28684719939 0 -3.79357396503 0 -3.7867830842 3.79357396503 -90 -0.826108516062 0.506726765642 0.969137397685 148.475464428 -121.524535572 8.09932317963 -7.0367236573e-07 -2.79977199489e-06 2.88684568724e-06 -104.108357189 46.7472831901
0.88959609901 0.025182376969 3.36239667366 -0.819654661712 -3.26096268395 0 -3.76369589476 0 -3.7574193699 3.76369589476 -90 -0.819654661712 0.502733210813 0.961547942587 148.47723199 -121.52276801 1.82633312013 -1.30186914474e-07 -5.17952388683e-07 5.34063020296e-07 -104.109214159 10.3686701781
0.88963648842 0.025022548553 3.34017574869 -0.81427511831 -3.23940273254 0 -3.73880816137 0 -3.73295755212 3.73880816137 -90 -0.81427511831 0.499405428831 0.95522235671 148.478675666 -121.521324334 0.439767448071 -2.53205211351e-08 -1.00732786725e-07 1.03866371421e-07 -104.109872959 2.45937490503
0.88967014625 0.024889358206 3.32166518997 -0.809791597449 -3.22144334155 0 -3.71807583566 0 -3.71257823094 3.71807583566 -90 -0.809791597449 0.496632494106 0.949950664813 148.479864486 -121.520135514 0.179262567966 -8.44498985398e-09 -3.35953669369e-08 3.46405330974e-08 -104.110388855 0.990678266063
0.88969819445 0.024778366252 3.30624452905 -0.806054998869 -3.2064822196 0 -3.7008041024 0 -3.69559930731 3.7008041024 -90 -0.806054998869 0.494321882804 0.945557393854 148.480846234 -121.519153766 0.0849916570824 -3.29737812616e-09 -1.31170205866e-08 1.35251222389e-08 -104.110796387 0.465172437648
0.88972156795 0.024685872956 3.2933973311 -0.802940959808 -3.19401812698 0 -3.68641462314 0 -3.6814528769 3.68641462314 -90 -0.802940959808 0.492396496158 0.941896222735 148.481658467 -121.518341533 0.0418163632199 -1.34102696816e-09 -5.3344924796e-09 5.50046937492e-09 -104.111120572 0.227042163636
0.88974104587 0.02460879521 3.28269367075 -0.80034579413 -3.18363382721 0 -3.6744259227 0 -3.66966604296 3.6744259227 -90 -0.80034579413 0.490792095484 0.938845179567 148.482331373 -121.517668627 0.020273405515 -5.38935320752e-10 -2.14379681261e-09 2.21050131276e-09 -104.111380033 0.109345133446
0.88975727746 0.024544563755 3.27377558313 -0.798183068863 -3.17498194597 0 -3.66443710361 0 -3.65984497295 3.66443710361 -90 -0.798183068863 0.48945515764 0.936302602142 148.482889445 -121.517110555 0.00931156285951 -2.05712624208e-10 -8.1827827145e-10 8.43739896702e-10 -104.111588819 0.0499454151298
0.88977080379 0.024491037542 3.2663449782 -0.796380739906 -3.16777322953 0 -3.65611431658 0 -3.65166164527 3.65611431658 -90 -0.796380739906 0.488341087051 0.934183761477 148.483352673 -121.516647327 0.00387951866082 -7.14157636796e-11 -2.84072119309e-10 2.9291155708e-10 -104.111757635 0.0207137039138
0.88978207573 0.024446432365 3.26015359749 -0.794878760291 -3.16176679021 0 -3.64917951624 0 -3.64484282927 3.64917951624 -90 -0.794878760291 0.487412726029 0.932418044154 148.48373744 -121.51626256 0.00138296450678 -2.12743344518e-11 -8.46225344509e-11 8.72557771341e-11 -104.111894715 0.0073559186638
0.88979146902 0.024409261385 3.25499466324 -0.793627084346 -3.15676199748 0 -3.64340111111 0 -3.6391609159 3.64340111111 -90 -0.793627084346 0.486639113638 0.930946602086 148.484057215 -121.515942785 0.000387912251668 -4.99985978596e-12 -1.98876848573e-11 2.05065503404e-11 -104.112006442 0.00205676134864
0.88979929676 0.024378285567 3.2506959339 -0.792584003236 -3.15259173577 0 -3.63858618768 0 -3.63442628895 3.63858618768 -90 -0.792584003236 0.485994451903 0.929720393166 148.484323098 -121.515676902 7.6346098671e-05 -8.25125889365e-13 -3.28203810676e-12 3.38417004117e-12 -104.112097802 0.000403720574123
0.88980581987 0.024352472386 3.24711392532 -0.791714756766 -3.1491167949 0 -3.63457403931 0 -3.63048097583 3.63457403931 -90 -0.791714756766 0.485457244412 0.928698547558 148.484544256 -121.515455744 9.30862389525e-06 -8.41749728568e-14 -3.34814211227e-13 3.4523322855e-13 -104.112172721 4.91125890357e-05
0.8898112558 0.024330961402 3.24412910319 -0.790990376363 -3.14622120371 0 -3.63123078263 0 -3.6271933601 3.63123078263 -90 -0.790990376363 0.485009578925 0.927847006327 148.484728269 -121.515271731 6.72649405462e-07 -5.07734323172e-15 -2.01955332935e-14 2.08240000793e-14 -104.112234307 3.54206280815e-06
0.88981578574 0.024313035582 3.24164187991 -0.790386720253 -3.14380834499 0 -3.62844487448 0 -3.62445378125 3.62844487448 -90 -0.790386720253 0.484636529498 0.927137386409 148.484881416 -121.515118584 2.99378481424e-08 -1.88386405319e-16 -7.49318783716e-16 7.72637092909e-16 -104.112285039 1.57390753307e-07
0.88981956069 0.024298097398 3.23956928327 -0.789883669551 -3.14179772259 0 -3.62612338117 0 -3.62217086887 3.62612338117 -90 -0.789883669551 0.484325658578 0.926546035003 148.485008902 -121.514991098 8.62038438129e-10 -4.53224390383e-18 -1.80272260999e-17 1.85882251886e-17 -104.112326907 4.52583592261e-09
0.88982270648 0.024285648912 3.23784218143 -0.789464457881 -3.14012226857 0 -3.62418887053 0 -3.62026849068 3.62418887053 -90 -0.789464457881 0.484066601964 0.926053241123 148.485115045 -121.514884955 4.60285369551e-16 -2.01421565125e-24 -8.01162096989e-24 8.26094033721e-24 -104.112361512 2.41378306546e-15
0.88982532798 0.024275275174 3.23699264697 -0.789258249575 -3.13929814003 0 -3.62323731432 0 -3.61868320926 3.62323731432 -90 -0.789258249575 0.483939174284 0.925810838632 148.485167232 -121.514832768 2.20440594888e-19 -8.03117497146e-28 -3.19442370907e-27 3.29383371579e-27 -104.11237846 1.15490165698e-18
0.88986864954 0.025988468884 3.44017927724 -0.837188944625 -3.33675687859 0 -3.85064663334 0 -3.87191148937 3.85064663334 -90 -0.837188944625 0.513889754749 0.982327884152 148.457240075 -121.542759925 24.490105824 -2.72411119378e-06 -1.08572404499e-05 1.11937692312e-05 -104.084732916 144.911181379
0.88993335713 0.025711016674 3.42452574931 -0.833420221943 -3.32156374382 0 -3.83311667641 0 -3.82958883542 3.83311667641 -90 -0.833420221943 0.511552932597 0.977893517507 148.458418971 -121.541581029 18.7758051292 -1.97911141814e-06 -7.88766541253e-06 8.13216803428e-06 -104.085438203 110.462545113
0.88998728012 0.025479806499 3.39249945855 -0.825704508015 -3.29048067368 0 -3.79725103592 0 -3.79433472004 3.79725103592 -90 -0.825704508015 0.506770362248 0.968815872432 148.460769337 -121.539230663 7.66203575112 -6.76481506496e-07 -2.69572552648e-06 2.77931005956e-06 -104.086802902 44.3115533523
0.89003221595 0.025287131353 3.36582432251 -0.819269711713 -3.26459323345 0 -3.76737752703 0 -3.76496657383 3.76737752703 -90 -0.819269711713 0.502784293572 0.961246568058 148.462635597 -121.537364403 1.68112897113 -1.21545830147e-07 -4.84288535112e-07 4.99308329366e-07 -104.087814684 9.56149994353
0.89006966247 0.025126568731 3.34360444937 -0.813905906486 -3.24303043451 0 -3.74249310327 0 -3.74050027812 3.74249310327 -90 -0.813905906486 0.499462668767 0.954937609906 148.464162288 -121.535837712 0.418357972534 -2.44617359797e-08 -9.74645129139e-08 1.0048735818e-07 -104.088603834 2.34413902457
0.89010086791 0.024992766547 3.3250944649 -0.809435372986 -3.22506838993 0 -3.72176319164 0 -3.72011668073 3.72176319164 -90 -0.809435372986 0.496694801709 0.9496796326 148.465420307 -121.534579693 0.172464912022 -8.25709662604e-09 -3.28982772624e-08 3.39186739652e-08 -104.089228812 0.954997424974
0.89012687244 0.024881264726 3.30967407068 -0.805709506763 -3.21010486022 0 -3.7044932296 0 -3.7031338155 3.7044932296 -90 -0.805709506763 0.49438836938 0.945297690445 148.466459689 -121.533540311 0.0820126396154 -3.23488329591e-09 -1.28881278218e-08 1.32879017081e-08 -104.089727547 0.449766342602
0.89014854288 0.024788346542 3.29682694676 -0.802604348858 -3.19763862353 0 -3.69010505853 0 -3.68898383833 3.69010505853 -90 -0.802604348858 0.492466435006 0.94164589103 148.467319918 -121.532680082 0.0403446663377 -1.31574106386e-09 -5.24189549456e-09 5.4045024486e-09 -104.090127958 0.219492458402
0.89016660158 0.024710914723 3.28612324432 -0.800016541332 -3.18725244044 0 -3.6781173311 0 -3.67719386682 3.6781173311 -90 -0.800016541332 0.490864890663 0.938602610427 148.468032796 -121.531967204 0.0195182466497 -5.27738711626e-10 -2.1024461676e-09 2.16766894192e-09 -104.09045111 0.10548446499
0.8901816505 0.024646388206 3.27720504909 -0.797859918746 -3.17859892206 0 -3.66812924126 0 -3.66737005538 3.66812924126 -90 -0.797859918746 0.489530319201 0.936066469765 148.46862416 -121.53137584 0.00892887162567 -2.00657725788e-10 -7.99375111845e-10 8.24174847672e-10 -104.090713103 0.0479892408814
0.89019419126 0.024592616109 3.26977430354 -0.796062655579 -3.17138879362 0 -3.65980700484 0 -3.65918435579 3.65980700484 -90 -0.796062655579 0.488418211216 0.933952971332 148.46911512 -121.53088488 0.003696740681 -6.9229052368e-11 -2.75785875938e-10 2.84342260994e-10 -104.090926364 0.0197774288609
0.8902046419 0.024547806028 3.26358277028 -0.794564884143 -3.16538114441 0 -3.65287262385 0 -3.65236350203 3.65287262385 -90 -0.794564884143 0.487491479435 0.932191691265 148.469522989 -121.530477011 0.0013054542873 -2.04297392867e-11 -8.13831534828e-11 8.3908240441e-11 -104.09110056 0.00695747565622
0.89021335076 0.024510464294 3.25842368403 -0.793316706025 -3.16037531997 0 -3.64709454051 0 -3.64667984836 3.64709454051 -90 -0.793316706025 0.486719220538 0.930723937061 148.46986201 -121.53013799 0.000361189033266 -4.73540822527e-12 -1.8863191289e-11 1.94484992891e-11 -104.091243278 0.00191883399122
0.89022060815 0.024479346183 3.25412481072 -0.792276533721 -3.15620418215 0 -3.64227986606 0 -3.64194374195 3.64227986606 -90 -0.792276533721 0.486075683908 0.929500794745 148.470143929 -121.529856071 6.975693806e-05 -7.66578715724e-13 -3.0534970504e-12 3.14825164411e-12 -104.091360512 0.000369586389118
0.89022665597 0.024453414423 3.25054267011 -0.79140970719 -3.15272849973 0 -3.63826791186 0 -3.63799717532 3.63826791186 -90 -0.79140970719 0.485539412132 0.9284815002 148.470378447 -121.529621553 8.31498482408e-06 -7.64125448186e-14 -3.04358931447e-13 3.13804474969e-13 -104.091457026 4.39522448019e-05
0.89023169582 0.024431804623 3.24755772947 -0.790687340646 -3.1498322825 0 -3.63492480764 0 -3.63470850088 3.63492480764 -90 -0.790687340646 0.485092525144 0.92763208185 148.470573593 -121.529426407 5.88090052461e-07 -4.5090930795e-15 -1.79594183973e-14 1.85168213338e-14 -104.091536635 3.10243207131e-06
0.8902358957 0.024413796457 3.24507040157 -0.790085360923 -3.14741889648 0 -3.63213902012 0 -3.63196802994 3.63213902012 -90 -0.790085360923 0.484720123636 0.926924229009 148.470736017 -121.529263983 2.57093528531e-08 -1.64269147806e-16 -6.54249733768e-16 6.74556983076e-16 -104.091602407 1.35401291477e-07
0.8902393956 0.024398789651 3.24299771355 -0.789583705962 -3.14540783064 0 -3.62981762271 0 -3.62968436727 3.62981762271 -90 -0.789583705962 0.484409792077 0.926334348807 148.470871234 -121.529128766 7.29058844822e-10 -3.89075701387e-18 -1.54955966283e-17 1.59765933925e-17 -104.091656822 3.83435389305e-09
0.89024231218 0.02438628398 3.24127053282 -0.789165656559 -3.14373200447 0 -3.62788318902 0 -3.62778135913 3.62788318902 -90 -0.789165656559 0.484151184556 0.92584278001 148.470983819 -121.529016181 3.58279285192e-16 -1.58862844588e-24 -6.32599858073e-24 6.52242312371e-24 -104.091701892 1.88174137608e-15
0.89024474266 0.024375862588 3.24042096501 -0.788960021231 -3.14290769817 0 -3.62693167678 0 -3.62619554967 3.62693167678 -90 -0.788960021231 0.484023978607 0.925600981641 148.471039174 -121.528960826 1.68426274749e-19 -6.21502959697e-28 -2.47476049533e-27 2.55160855071e-27 -104.091723991 8.83709166668e-19
0.89033305281 0.026094194528 3.44643893007 -0.836231456205 -3.34344980458 0 -3.85733438446 0 -3.87880221142 3.85733438446 -90 -0.836231456205 0.513884579877 0.981509282803 148.428255863 -121.571744137 23.2828481928 -2.62641312602e-06 -1.05005754695e-05 1.08240541115e-05 -104.042213133 138.270134801
0.89039286491 0.025815653755 3.43078643709 -0.832484451405 -3.32825233189 0 -3.83980862332 0 -3.83650389789 3.83980862332 -90 -0.832484451405 0.511556291427 0.977097877986 148.42954519 -121.57045481 17.5947291199 -1.88492726252e-06 -7.53573286056e-06 7.76789732895e-06 -104.043093575 103.914300791
0.89044270832 0.025583536444 3.39876903923 -0.824814921499 -3.29716692851 0 -3.8039591399 0 -3.80126848984 3.8039591399 -90 -0.824814921499 0.506792211383 0.968069243405 148.432125182 -121.567874818 6.84278262798 -6.14355702163e-07 -2.45572920808e-06 2.53141062373e-06 -104.044821393 39.7264181649
0.8904842445 0.025390105352 3.37210018668 -0.818418460428 -3.27127641246 0 -3.77409780476 0 -3.77191483947 3.77409780476 -90 -0.818418460428 0.502821392298 0.960540570149 148.434189063 -121.565810937 1.42520836001 -1.04494413025e-07 -4.17628848463e-07 4.30503150046e-07 -104.046143626 8.13517835948
0.89051885798 0.025228912775 3.3498847638 -0.813086322413 -3.24971030637 0 -3.74922262638 0 -3.74745986466 3.74922262638 -90 -0.813086322413 0.49951232001 0.954265152914 148.435881848 -121.564118152 0.380433534028 -2.25724627644e-08 -9.02116777331e-08 9.29928170407e-08 -104.047193962 2.13956344612
0.89054770255 0.025094585628 3.33137794014 -0.808641933744 -3.23174500025 0 -3.7284997926 0 -3.7270851746 3.7284997926 -90 -0.808641933744 0.496754792356 0.949034855044 148.43727836 -121.56272164 0.160391048695 -7.79745492057e-09 -3.11612731664e-08 3.21220389151e-08 -104.04803745 0.891497332367
0.89057173969 0.024982646339 3.31595979833 -0.804937680536 -3.21677840143 0 -3.7112352923 0 -3.71010936672 3.7112352923 -90 -0.804937680536 0.494456890875 0.944675786114 148.438433138 -121.561566862 0.0767644498074 -3.07578380839e-09 -1.22912925288e-08 1.26702935626e-08 -104.048718802 0.422590143557
0.89059177064 0.024889363598 3.30311428575 -0.801850411367 -3.20430936287 0 -3.69685136878 0 -3.69596501685 3.69685136878 -90 -0.801850411367 0.492542005911 0.941042912624 148.439389508 -121.560610492 0.0377816346522 -1.25204779175e-09 -5.00316368853e-09 5.15744840058e-09 -104.049271747 0.206337236714
0.8906084631 0.024811627981 3.29241174137 -0.799277425972 -3.19392067511 0 -3.68486696959 0 -3.68417955848 3.68486696959 -90 -0.799277425972 0.490946294484 0.938015309413 148.440182486 -121.559817514 0.0182187712564 -5.00709401983e-10 -2.00075522486e-09 2.06245773809e-09 -104.049722255 0.0988413399903
0.89062237349 0.024746848299 3.28349438266 -0.797133095828 -3.18526495142 0 -3.67488150617 0 -3.67435938565 3.67488150617 -90 -0.797133095828 0.489616554753 0.935492167566 148.44084059 -121.55915941 0.00827730066077 -1.89138805134e-10 -7.55744405574e-10 7.79052740007e-10 -104.050090547 0.0446596535753
0.89063396547 0.024692865232 3.27606424493 -0.795346035075 -3.17805290319 0 -3.66656135615 0 -3.66617663353 3.66656135615 -90 -0.795346035075 0.488508452954 0.93338945575 148.441387163 -121.558612837 0.00338807919519 -6.45393771375e-11 -2.57873067375e-10 2.65826746334e-10 -104.050392506 0.0181966174499
0.89064362546 0.024647879342 3.26987315611 -0.793856736952 -3.17204359714 0 -3.65962864267 0 -3.65935817696 3.65962864267 -90 -0.793856736952 0.487585045531 0.931637132716 148.441841375 -121.558158625 0.00117532731845 -1.87180236189e-11 -7.47873099007e-11 7.70941429889e-11 -104.050640699 0.00628842130409
0.89065167545 0.024610391101 3.26471439716 -0.792615599935 -3.16703635247 0 -3.65385189953 0 -3.65367648002 3.65385189953 -90 -0.792615599935 0.486815547061 0.930176820527 148.442219016 -121.557780984 0.000316574386224 -4.22563632471e-12 -1.68828321265e-11 1.74036220702e-11 -104.050845136 0.00168840651202
0.89065838377 0.024579150899 3.26041576665 -0.791581281322 -3.16286400362 0 -3.64903830751 0 -3.64894197573 3.64903830751 -90 -0.791581281322 0.486174303896 0.928959864465 148.442533121 -121.557466879 5.88554609369e-05 -6.58679545427e-13 -2.63154123495e-12 2.71272352783e-12 -104.051013841 0.000313053225131
0.89066397404 0.024553117398 3.25683380756 -0.790719323212 -3.15938729289 0 -3.64502723142 0 -3.64499672452 3.64502723142 -90 -0.790719323212 0.485639938534 0.927945714399 148.442794463 -121.557205537 6.69702956651e-06 -6.26906780908e-14 -2.50449596116e-13 2.58176547407e-13 -104.051153275 3.55393728041e-05
0.8906686326 0.024531422814 3.25384900367 -0.790001006974 -3.15649020541 0 -3.64168484227 0 -3.64170913259 3.64168484227 -90 -0.790001006974 0.485194636867 0.927100575647 148.443011966 -121.556988034 4.53063805911e-07 -3.5395745778e-15 -1.41400751525e-14 1.45763623671e-14 -104.051268669 2.39956316567e-06
0.89067251474 0.024513343994 3.25136177977 -0.789402397846 -3.15407608505 0 -3.63889963917 0 -3.63896955407 3.63889963917 -90 -0.789402397846 0.484823554126 0.926396283951 148.443193021 -121.556806979 1.9083259377e-08 -1.24281173033e-16 -4.9646953367e-16 5.11788862851e-16 -104.051364275 1.00903322678e-07
0.89067574985 0.024498278311 3.24928917163 -0.788903548422 -3.15206440106 0 -3.63657872096 0 -3.6366866288 3.63657872096 -90 -0.788903548422 0.484514319901 0.925809367712 148.443343765 -121.556656235 5.24101238078e-10 -2.85151977698e-18 -1.13907563511e-17 1.17422532851e-17 -104.051443558 2.76740283945e-09
0.89067844577 0.024485723575 3.24756205253 -0.788487834743 -3.15038805522 0 -3.63464468091 0 -3.63478423049 3.63464468091 -90 -0.788487834743 0.484256625693 0.925320266398 148.443469292 -121.556530708 2.11863303997e-16 -9.59559866596e-25 -3.83260030468e-24 3.95089636513e-24 -104.05150936 1.11724653222e-15
0.89068069238 0.024475261294 3.24671251924 -0.788283349129 -3.14956349744 0 -3.63369336698 0 -3.63319892558 3.63369336698 -90 -0.788283349129 0.484129869539 0.925079682723 148.443531013 -121.556468987 9.50726617002e-20 -3.58514131049e-28 -1.43190657607e-27 1.47610605352e-27 -104.051541658 5.00862702663e-19
0.89079871574 0.02619166083 3.45169033838 -0.835029804297 -3.34916255569 0 -3.86288924496 0 -3.88440608343 3.86288924496 -90 -0.835029804297 0.513726689276 0.980402950448 148.399347364 -121.600652636 22.0377021316 -2.48229098617e-06 -9.95560470084e-06 1.02604019205e-05 -103.999849606 131.275378192
0.89085360531 0.025912118682 3.43604878289 -0.831306105574 -3.33397057951 0 -3.84537873891 0 -3.84214650208 3.84537873891 -90 -0.831306105574 0.511408159399 0.976016498999 148.400736957 -121.599263043 16.3925327963 -1.75745791065e-06 -7.04820052144e-06 7.26400687944e-06 -104.000891547 97.133718645
0.89089934662 0.025679166891 3.40405323605 -0.823684274245 -3.30289587075 0 -3.80955986334 0 -3.80694178713 3.80955986334 -90 -0.823684274245 0.506663992585 0.967038904344 148.403526503 -121.596473497 6.05319967833 -5.43446145007e-07 -2.17904966638e-06 2.24579425186e-06 -104.002955005 35.2563324606
0.89093746438 0.025485040399 3.37740159144 -0.817327470341 -3.27701325046 0 -3.77972288765 0 -3.77761261569 3.77972288765 -90 -0.817327470341 0.502709637191 0.959552619128 148.40577135 -121.59422865 1.2094855546 -8.83710937523e-08 -3.54283339436e-07 3.65138538023e-07 -104.004564795 6.92459275894
0.89096922918 0.025323268323 3.35519981394 -0.812028135032 -3.25545306577 0 -3.75486721303 0 -3.75317727756 3.75486721303 -90 -0.812028135032 0.499414147262 0.95331224526 148.40761623 -121.59238377 0.346504056599 -2.05133606851e-08 -8.22344914301e-08 8.47544126487e-08 -104.005857115 1.95483750982
0.89099569985 0.025188458259 3.33670387963 -0.807610869013 -3.2374922484 0 -3.73416008025 0 -3.73281842204 3.73416008025 -90 -0.807610869013 0.496667831845 0.948110913453 148.409139633 -121.590860367 0.149156433844 -7.23950976091e-09 -2.90199734368e-08 2.99093542703e-08 -104.006903157 0.83169453439
0.89101775874 0.025076116539 3.32129447805 -0.803929065798 -3.22252908217 0 -3.71690828092 0 -3.71585544226 3.71690828092 -90 -0.803929065798 0.494379198748 0.943775814136 148.410400186 -121.589599814 0.0718266788569 -2.87402145921e-09 -1.15199612715e-08 1.18730587763e-08 -104.007753862 0.396680404653
0.89103614114 0.02498249844 3.30845601714 -0.800860397991 -3.21006269079 0 -3.70253467557 0 -3.70172152779 3.70253467557 -90 -0.800860397991 0.492471984782 0.940162796795 148.411444712 -121.588555288 0.0353669287025 -1.1706235044e-09 -4.69196722972e-09 4.83579556875e-09 -104.008448304 0.193775714824
0.89105145982 0.024904483356 3.29775918848 -0.798302838871 -3.19967606138 0 -3.6905586904 0 -3.68994458808 3.6905586904 -90 -0.798302838871 0.490882629022 0.937151657431 148.412311156 -121.587688844 0.0169985928041 -4.66681642539e-10 -1.87041591799e-09 1.92775722569e-09 -104.009016973 0.0925219657168
0.89106422538 0.024839470787 3.2888464812 -0.796171311529 -3.19102195047 0 -3.68058011034 0 -3.68013139178 3.68058011034 -90 -0.796171311529 0.489558159865 0.934642177354 148.413030484 -121.586969516 0.00766952779749 -1.75092787319e-10 -7.01726126914e-10 7.23240696933e-10 -104.009483898 0.041515807355
0.89107486335 0.024785293646 3.28142014247 -0.794394883197 -3.18381117549 0 -3.67226560767 0 -3.67195436761 3.67226560767 -90 -0.794394883197 0.488454432183 0.932550809797 148.413628077 -121.586371923 0.00310308573671 -5.90680123347e-11 -2.36719938915e-10 2.43978209781e-10 -104.009868163 0.0167206886451
0.89108372832 0.024740146029 3.27523216577 -0.792914419802 -3.17780288126 0 -3.66533753846 0 -3.66514062551 3.66533753846 -90 -0.792914419802 0.487534657204 0.930807911895 148.414124806 -121.585875194 0.0010570494651 -1.68255222662e-11 -6.74270425828e-11 6.94946390708e-11 -104.010185018 0.00567421241295
0.89109111579 0.024702523014 3.27007596307 -0.791680627201 -3.17279644575 0 -3.65956462269 0 -3.65946281599 3.65956462269 -90 -0.791680627201 0.486768176937 0.92935543417 148.41453788 -121.58546212 0.00027701762789 -3.69601485836e-12 -1.48108828305e-11 1.52650844844e-11 -104.010446725 0.0014823098458
0.89109727203 0.024671170502 3.26577943692 -0.790652416439 -3.16862474756 0 -3.65475419031 0 -3.65473152255 3.65475419031 -90 -0.790652416439 0.486129442747 0.928144992956 148.414881513 -121.585118487 4.95539202516e-05 -5.54235081702e-13 -2.22085630291e-12 2.28896917315e-12 -104.010663187 0.000264448443316
0.89110240222 0.024645043408 3.26219921362 -0.789795539469 -3.16514856277 0 -3.65074572664 0 -3.65078892725 3.65074572664 -90 -0.789795539469 0.485597163865 0.927136262233 148.415167462 -121.584832538 5.38688935672e-06 -5.0379878033e-14 -2.0186523677e-13 2.08056990047e-13 -104.010842441 2.86812768642e-05
0.89110667738 0.02462327083 3.2592158439 -0.789081451448 -3.16225190234 0 -3.64740550025 0 -3.64750353483 3.64740550025 -90 -0.789081451448 0.485153597919 0.926295632863 148.41540547 -121.58459453 3.49424940144e-07 -2.72683240596e-15 -1.0925545783e-14 1.12606918386e-14 -104.010991033 1.85678432593e-06
0.89111024001 0.024605127016 3.2567298065 -0.788486361569 -3.15983812997 0 -3.64462208946 0 -3.64476578001 3.64462208946 -90 -0.788486361569 0.48478395949 0.925595094246 148.415603615 -121.584396385 1.4221929622e-08 -9.25087604188e-17 -3.70638975961e-16 3.82009343417e-16 -104.011114314 7.54479660941e-08
0.89111320887 0.02459000717 3.25465818103 -0.787990441909 -3.15782673042 0 -3.6423026578 0 -3.6424843675 3.6423026578 -90 -0.787990441909 0.484475927382 0.925011302295 148.4157686 -121.5842314 3.79368901616e-10 -2.06130019052e-18 -8.25838846719e-18 8.51175346396e-18 -104.011216667 2.00981265161e-09
0.89111568293 0.024577407298 3.25293187666 -0.787577167658 -3.15615061781 0 -3.64036985173 0 -3.64058322492 3.64036985173 -90 -0.787577167658 0.484219233917 0.924524802285 148.415905995 -121.584094005 1.28168718628e-16 -5.79666523274e-25 -2.3220201397e-24 2.39328047798e-24 -104.011301699 6.78132506909e-16
0.89111774463 0.024566907405 3.25208274307 -0.787373881402 -3.1553261738 0 -3.63941914353 0 -3.63899896391 3.63941914353 -90 -0.787373881402 0.484092969736 0.924285497531 148.415973554 -121.584026446 5.52765370822e-20 -2.0814351602e-28 -8.33746496395e-28 8.59335222528e-28 -104.011343457 2.92175380655e-19
0.89126690882 0.026279055887 3.45574863441 -0.833583876757 -3.35370466941 0 -3.86711009494 0 -3.88844111375 3.86711009494 -90 -0.833583876757 0.513405425527 0.979003201249 148.371017778 -121.628982222 20.7466305666 -2.3340503025e-06 -9.38998334981e-06 9.67572168608e-06 -103.958366522 123.876282278
0.89131687248 0.025998572138 3.44012286642 -0.829883910003 -3.33852310393 0 -3.84962024452 0 -3.84623027297 3.84962024452 -90 -0.829883910003 0.511097140592 0.974642318292 148.37250112 -121.62749888 15.1661646276 -1.6280793311e-06 -6.54947930065e-06 6.74880191361e-06 -103.959561242 90.103453333
0.89135850886 0.02576483568 3.40815933159 -0.822310720933 -3.30746937158 0 -3.81384329313 0 -3.81106459476 3.81384329313 -90 -0.822310720933 0.506373921547 0.965717104289 148.375487021 -121.624512979 5.29149349879 -4.750244935e-07 -1.91052578286e-06 1.96869437045e-06 -103.961942559 30.8972637078
0.89139320584 0.025570055299 3.38153335456 -0.815994379839 -3.28160320257 0 -3.78404009957 0 -3.78176685718 3.78404009957 -90 -0.815994379839 0.502436897 0.95827434333 148.377901932 -121.622098068 1.02786130377 -7.48666547525e-08 -3.01058101345e-07 3.1022734935e-07 -103.963825092 5.89834772703
0.89142211999 0.025407738315 3.35935226617 -0.810728526511 -3.26005606061 0 -3.75921177545 0 -3.75735695258 3.75921177545 -90 -0.810728526511 0.49915571484 0.952069967873 148.379889751 -121.620110249 0.315048471151 -1.86169408398e-08 -7.48577946815e-08 7.71380622086e-08 -103.965346982 1.78170846697
0.89144621512 0.025272474161 3.3408730862 -0.806338962236 -3.24210565812 0 -3.73852687852 0 -3.73701876324 3.73852687852 -90 -0.806338962236 0.496421220404 0.946898411335 148.381532479 -121.618467521 0.13819007272 -6.69873713385e-09 -2.69330197598e-08 2.77535714147e-08 -103.966585323 0.772468956911
0.89146629439 0.025159754033 3.32547730857 -0.802680101472 -3.22715085643 0 -3.72129322294 0 -3.72007263858 3.72129322294 -90 -0.802680101472 0.494142366515 0.94258796625 148.382892544 -121.617107456 0.0668927723603 -2.67390342272e-09 -1.07499239547e-08 1.10774834395e-08 -103.967596916 0.370365541536
0.89148302712 0.025065820593 3.31264996628 -0.799630452893 -3.21469121732 0 -3.70693446955 0 -3.70595251505 3.70693446955 -90 -0.799630452893 0.492243252229 0.938995383527 148.384020027 -121.615979973 0.0329220337308 -1.08879114741e-09 -4.37699897062e-09 4.51038674499e-09 -103.968425869 0.180840235488
0.89149697106 0.024987542727 3.30196223979 -0.79708867386 -3.20431006297 0 -3.6949706748 0 -3.69418689157 3.6949706748 -90 -0.79708867386 0.490660611833 0.936001196124 148.384955614 -121.615044386 0.0157541755303 -4.32225235379e-10 -1.73747280979e-09 1.79042754692e-09 -103.969106937 0.085969023832
0.89150859101 0.024922311171 3.29305700433 -0.794970248597 -3.19566040926 0 -3.68500212441 0 -3.68438300232 3.68500212441 -90 -0.794970248597 0.489341715143 0.933505789485 148.385732561 -121.614267439 0.00704869037822 -1.60838936271e-10 -6.46514028096e-10 6.66220387375e-10 -103.969667744 0.0382538072071
0.8915182743 0.024867951542 3.28563681317 -0.793204705395 -3.18845327516 0 -3.67669589003 0 -3.67621364909 3.67669589003 -90 -0.793204705395 0.48824261487 0.931426112964 148.386378166 -121.613621834 0.00281355414995 -5.35412920226e-11 -2.1520688357e-10 2.21767171804e-10 -103.970130397 0.0151999895453
0.89152634371 0.02482265185 3.2794539046 -0.791733289953 -3.18244796397 0 -3.66977464883 0 -3.6694062399 3.66977464883 -90 -0.791733289953 0.487326684863 0.929692932183 148.386914902 -121.613085098 0.000938682719288 -1.49404591785e-11 -6.00498845117e-11 6.18805817697e-11 -103.970512685 0.00505198801745
0.89153306822 0.024784902108 3.27430188719 -0.790507021447 -3.17744397878 0 -3.66400737983 0 -3.66373366692 3.66400737983 -90 -0.790507021447 0.48656340105 0.928248534544 148.387361309 -121.612638691 0.000238511812847 -3.18237486925e-12 -1.2790260252e-11 1.31802233453e-11 -103.970828999 0.00127961409728
0.89153867197 0.024753443989 3.27000882223 -0.789485069773 -3.17327429779 0 -3.65920162307 0 -3.65900670897 3.65920162307 -90 -0.789485069773 0.485927325281 0.927044814619 148.387732714 -121.612267286 4.08755396166e-05 -4.57104035411e-13 -1.83704910164e-12 1.89306468919e-12 -103.971091022 0.000218709163865
0.89154334177 0.02472722889 3.26643146484 -0.78863340116 -3.16979977683 0 -3.65519703497 0 -3.65506770659 3.65519703497 -90 -0.78863340116 0.485397258136 0.926041676659 148.388041803 -121.611958197 4.22753675744e-06 -3.95207881762e-14 -1.58821170647e-13 1.63664473951e-13 -103.971308284 2.25679337661e-05
0.89154723327 0.024705382974 3.26345047053 -0.787923648194 -3.16690449091 0 -3.65186002371 0 -3.65178529446 3.65186002371 -90 -0.787923648194 0.484955532807 0.92520570216 148.38829909 -121.61170091 2.62032657955e-07 -2.04367838568e-15 -8.21249930144e-15 8.46296486583e-15 -103.971488578 1.39608315093e-06
0.89155047618 0.024687178044 3.26096640367 -0.787332167257 -3.1644918556 0 -3.64907928211 0 -3.64905001358 3.64907928211 -90 -0.787332167257 0.484587426516 0.924509038645 148.388513299 -121.611486701 1.02662173663e-08 -6.67360666372e-17 -2.68167938688e-16 2.76347163207e-16 -103.971638296 5.4607460031e-08
0.89155317861 0.024672007269 3.25889641406 -0.786839252587 -3.16248139773 0 -3.64676206775 0 -3.64677065613 3.64676206775 -90 -0.786839252587 0.484280670023 0.92392847324 148.388691669 -121.611308331 2.64841396101e-10 -1.43795570137e-18 -5.77800026757e-18 5.9542428314e-18 -103.971762697 1.40681103115e-09