TITLE = "Electromagnetic Field"
VARIABLES = X Y E ER EI EvR EvI EvR' EvI' Ev EvPhase EpR EpI Ep EpPhase EpToEvPhaseShift elConductivity Jr Ji J Jphase QJ
ZONE N=293, E=257, F=FEPOINT, ET=QUADRILATERAL
0.017041094594 0.028621113072 47.8707744119 -47.7064581809 -3.96293964483 0 -104.971450013 0 -98.3148399693 104.971450013 -90 -47.7064581809 101.008510368 111.707767496 115.281430263 -154.718569737 2616.26740704 -1.14818208658 -0.095378623438 1.15213679125 -175.251385214 2997733.64044
0.017041094594 0.031312347858 50.8054781959 -50.2473260417 -7.01668937466 0 -109.471825159 0 -107.176219443 109.471825159 -90 -50.2473260417 102.455135784 114.125166118 116.107336587 -153.892663413 2550.22999317 -1.17726631552 -0.162757462365 1.19012139685 -172.225403265 3292458.3087
0.017041094594 0.034003582644 56.8938018698 -55.1221395528 -13.7600567013 0 -118.417505772 0 -115.934312513 118.417505772 -90 -55.1221395528 104.657449071 118.298632733 117.763055051 -152.236944949 2413.02903569 -1.22207379249 -0.303030445048 1.26086456769 -166.152823464 3904603.40945
0.017041094594 0.036694817429 63.4268728046 -59.4866284412 -21.7509886806 0 -127.248500932 0 -124.580261835 127.248500932 -90 -59.4866284412 105.497512251 121.125421922 119.410018545 -150.589981455 2265.3726685 -1.23825366273 -0.450256990906 1.31941791516 -160.07687051 4553301.07034
0.017041094594 0.039386052215 70.4106529898 -63.1540472404 -30.9171681473 0 -135.955732975 0 -133.10524275 135.955732975 -90 -63.1540472404 105.038564828 122.573919047 121.013808267 -148.986191733 2107.91461518 -1.22341299608 -0.595897263916 1.36266182727 -154.068497927 5218306.58849
0.017041094594 0.042077287001 77.8352501356 -65.9562799838 -41.1413363293 0 -144.53016074 0 -141.500476879 144.53016074 -90 -65.9562799838 103.388824411 122.645703018 122.537433898 -147.462566102 1938.04173691 -1.17494782123 -0.729104668638 1.38456053052 -148.187986587 5858349.98078
0.017041094594 0.044768521787 85.6752100396 -67.7575359684 -52.2654602173 0 -152.962795714 0 -149.757248171 152.962795714 -90 -67.7575359684 100.697335497 121.379702829 123.941217824 -146.058782176 1746.86538538 -1.08825287677 -0.834472816782 1.37300314989 -142.486321008 6390099.74845
0.017041094594 0.047459756572 93.8901442212 -68.4731418889 -64.0909510395 0 -161.244720993 0 -157.866921505 161.244720993 -90 -68.4731418889 97.1537699535 118.864841997 125.18337871 -144.81662129 1524.39903125 -0.960131055715 -0.892064987946 1.31201056921 -137.0128804 6685132.37257
0.017041094594 0.050150991358 102.42457062 -68.0945864498 -76.3790398747 0 -169.367113109 0 -165.820963959 169.367113109 -90 -68.0945864498 92.9880732343 115.258525545 126.223355252 -143.776644748 1253.99088489 -0.786155371885 -0.872484342768 1.17554827975 -131.824731266 6522725.1722
0.017041094594 0.052842226144 111.205582611 -66.7311629595 -88.8460022119 0 -177.321266867 0 -173.610968771 177.321266867 -90 -66.7311629595 88.4752646547 110.821315259 127.032298472 -142.967701528 937.282615335 -0.576761031403 -0.75649812849 0.952042120852 -127.002002726 5722541.47006
0.017041094594 0.05553346093 120.140515412 -64.6315904572 -101.183391001 0 -185.098623173 0 -181.228682069 185.098623173 -90 -64.6315904572 83.9152321712 105.920692644 127.609015628 -142.390984372 632.697234915 -0.377694262399 -0.581174349195 0.693549516439 -122.645342615 4497940.9922
0.017041094594 0.058224695716 124.633620344 -63.4371788898 -107.281236264 0 -188.942042125 0 -188.666032272 188.942042125 -90 -63.4371788898 81.6608058607 103.405816467 127.841401883 -142.158598117 494.609628667 -0.288640912614 -0.488132582243 0.567086408127 -120.596530795 3841519.05745
0.020459313512 0.028621113072 49.011212764 -48.8696924917 -3.70870712389 0 -107.732890112 0 -102.602256094 107.732890112 -90 -48.8696924917 104.024182988 114.931812813 115.166434241 -154.833565759 2564.71112797 -1.27866880309 -0.0964508574449 1.28232682372 -175.652381976 3079338.08672
0.020459313512 0.031312347858 52.0138846876 -51.472855573 -6.91840505095 0 -112.351959419 0 -111.850585549 112.351959419 -90 -51.472855573 105.433554368 117.340052442 116.006764601 -153.993235399 2491.01675226 -1.30561357948 -0.172881188159 1.31900635691 -172.52024615 3367737.54856
0.020459313512 0.034003582644 58.2517961622 -56.4542797041 -13.999762137 0 -121.533571445 0 -120.991024521 121.533571445 -90 -56.4542797041 107.533809308 121.465271453 117.688785477 -152.311214523 2337.62206216 -1.34269560357 -0.330131321658 1.38477956799 -166.245545142 3960059.50708
0.020459313512 0.036694817429 64.9626692965 -60.887120785 -22.371780416 0 -130.59742916 0 -130.01422138 130.59742916 -90 -60.887120785 108.225648744 124.190374048 119.356258151 -150.643741849 2173.64360984 -1.34532393718 -0.491153754286 1.43429679834 -159.993402378 4575071.55605
0.020459313512 0.039386052215 72.1527404133 -64.5832848244 -31.9426742181 0 -139.534137586 0 -138.910835986 139.534137586 -90 -64.5832848244 107.591463368 125.498757733 120.973764337 -149.026235663 2000.3097383 -1.31185203113 -0.645156686995 1.46398317632 -153.844352437 5187898.98837
0.020459313512 0.042077287001 79.8092387851 -67.3805770714 -42.5733274768 0 -148.33432371 0 -147.671553003 148.33432371 -90 -67.3805770714 105.760996233 125.411919359 122.504198991 -147.495801009 1815.87653209 -1.24105363457 -0.779650185072 1.46757862077 -147.865890091 5754020.28802
0.020459313512 0.044768521787 87.9008423358 -69.1563684386 -54.0842211015 0 -156.988652621 0 -156.287098102 156.988652621 -90 -69.1563684386 102.904431519 123.99196258 123.908975799 -146.091024201 1615.82114405 -1.13221945571 -0.879775324193 1.43560306897 -142.113374004 6200000.1324
0.020459313512 0.047459756572 96.3792670716 -69.8423504903 -66.2618688764 0 -165.487846736 0 -164.74825714 165.487846736 -90 -69.8423504903 99.2259778594 121.347556455 125.148836171 -144.851163829 1390.99589151 -0.983398506742 -0.92545175588 1.35186365047 -136.634841744 6400253.37532
0.020459313512 0.050150991358 105.180599412 -69.4465970414 -78.8605749385 0 -173.822708235 0 -173.045898542 173.822708235 -90 -69.4465970414 94.9621332967 117.650119952 126.187164042 -143.812835958 1129.90305798 -0.793919319161 -0.891583536181 1.19496515575 -131.481313119 6168805.61078
0.020459313512 0.052842226144 114.224714048 -68.0873041841 -91.6006760978 0 -181.984144863 0 -181.170998915 181.984144863 -90 -68.0873041841 90.3834687647 113.161508859 126.99924547 -143.00075453 841.737182965 -0.580502621615 -0.769633021842 0.964766416988 -126.7207799 5399279.60142
0.020459313512 0.05553346093 123.414967203 -66.0023404136 -104.191971979 0 -189.963199113 0 -189.114672043 189.963199113 -90 -66.0023404136 85.7712271338 108.227614107 127.584859126 -142.415140874 575.246741205 -0.385631761436 -0.599043223208 0.712869008538 -122.433105647 4302695.40044
0.020459313512 0.058224695716 132.360660726 -64.2723768094 -115.63779025 0 -198.136822981 0 -196.868201192 198.136822981 -90 -64.2723768094 82.4990327302 104.58054525 127.923204149 -142.076795851 393.88738714 -0.262852251564 -0.466813575863 0.535947119905 -119.144293378 3383374.8934
0.020459313512 0.060915930501 144.416328517 -62.0277875738 -130.368859368 0 -209.27945231 0 -204.423074692 209.27945231 -90 -62.0277875738 78.9105929419 100.371022269 128.170719524 -141.829280476 238.018304924 -0.156781446679 -0.324448717614 0.360444029594 -115.487130427 2456033.33526
0.020459313512 0.063299251501 152.449586974 -59.5669485602 -140.302323341 0 -215.854562987 0 -210.941059445 215.854562987 -90 -59.5669485602 75.5522396464 96.2099924861 128.253203781 -141.746796219 165.993553472 -0.0910696620043 -0.211807612719 0.230591725319 -113.029809256 1914846.59755
0.020459313512 0.065285352334 159.268561652 -57.4417730303 -148.533323518 0 -221.397982269 0 -216.244729478 221.397982269 -90 -57.4417730303 72.864658751 92.7837087593 128.249668555 -141.750331445 120.535796877 -0.0530135673837 -0.135801909921 0.145795222063 -111.157723884 1520870.33489
0.020459313512 0.066940436362 164.852363768 -55.6948942044 -155.149761798 0 -225.919527712 0 -220.573166623 225.919527712 -90 -55.6948942044 70.7697659137 90.0571117467 128.201879306 -141.798120694 89.3214141885 -0.031730024807 -0.0877227373279 0.0932894841378 -109.755817742 1208592.07949
0.020459313512 0.068319673052 169.429154258 -54.2684747077 -160.497162144 0 -229.617900081 0 -224.115451954 229.617900081 -90 -54.2684747077 69.1207379368 87.8791592549 128.135993118 -141.864006882 64.5340190852 -0.0186573915936 -0.0548035862285 0.0578940583244 -108.687292943 922480.047297
0.020459313512 0.06946903696 171.659215906 -53.576483704 -163.084170903 0 -231.418486679 0 -227.02163493 231.418486679 -90 -53.576483704 68.3343157759 86.8332788661 128.097682022 -141.902317978 52.1037536298 -0.0131607880059 -0.0400607888384 0.0421672045943 -108.186408932 767667.694751
0.024561176215 0.028621113072 51.4099321099 -51.2303098383 -4.25372751523 0 -113.546533153 0 -108.027533064 113.546533153 -90 -51.2303098383 109.292805638 120.7040547 115.113620762 -154.886379238 2461.99579708 -1.54376887483 -0.129381441307 1.54927930398 -175.270352935 3251957.23932
0.024561176215 0.031312347858 54.5769795562 -53.9122609504 -7.84346067468 0 -118.416009468 0 -117.766823126 118.416009468 -90 -53.9122609504 110.572548793 123.029485723 115.975292528 -154.024707472 2370.58518681 -1.56022118164 -0.22465553463 1.57913121664 -171.935909603 3523905.84719
0.024561176215 0.034003582644 61.1765001535 -59.0036262681 -15.7339470574 0 -128.095485635 0 -127.392707793 128.095485635 -90 -59.0036262681 112.361538578 126.925798199 117.693174451 -152.306825549 2179.75727537 -1.56784676531 -0.414940620776 1.62477594711 -165.280962065 4064973.82688
0.024561176215 0.036694817429 68.3156184404 -63.4487554894 -24.9907818001 0 -137.650983641 0 -136.895217293 137.650983641 -90 -63.4487554894 112.660201841 129.31206392 119.381242456 -150.618757544 1973.9380392 -1.52391862358 -0.5958285033 1.63918873058 -158.709224891 4581548.42576
0.024561176215 0.039386052215 75.9983387479 -67.0649597835 -35.4712998132 0 -147.072443177 0 -146.264361361 147.072443177 -90 -67.0649597835 111.601143364 130.214249198 121.001677192 -148.998322808 1756.63230427 -1.43013147337 -0.750322453297 1.61777024978 -152.324368494 5033828.11869
0.024561176215 0.042077287001 84.2014311566 -69.7162471975 -46.9788202338 0 -156.349791282 0 -155.49014175 156.349791282 -90 -69.7162471975 109.370971048 129.711527913 122.517394555 -147.482605445 1531.05793838 -1.29220130613 -0.862489260244 1.55604818555 -146.212940669 5369548.56659
0.024561176215 0.044768521787 92.875686666 -71.3256092967 -59.279836796 0 -165.472958095 0 -164.562568135 165.472958095 -90 -71.3256092967 106.193121299 127.931316412 123.893554165 -146.106445835 1300.92872776 -1.11981720787 -0.920133848934 1.45139420948 -140.441478602 5531345.78446
0.024561176215 0.047459756572 101.950372677 -71.8807935429 -72.1228795887 0 -174.431896328 0 -173.471677637 174.431896328 -90 -71.8807935429 102.30901674 125.04183293 125.099090624 -144.900909376 1070.1843485 -0.925759504603 -0.916463356849 1.30424577281 -135.057391589 5462044.54294
0.024561176215 0.050150991358 111.339201018 -71.4386342532 -85.2526618057 0 -183.216604671 0 -182.207558225 183.216604671 -90 -71.4386342532 97.963942865 121.249090123 126.109163879 -143.890836121 842.863284209 -0.723800400073 -0.850831649964 1.11817990118 -130.0950252 5114522.71715
0.024561176215 0.052842226144 120.945384688 -70.130770214 -98.4183755198 0 -191.81715537 0 -190.760376147 191.81715537 -90 -70.130770214 93.3987798506 116.799701071 126.90970029 -143.09029971 629.685513774 -0.531747047755 -0.734609626007 0.907597367685 -125.584605607 4503122.86111
0.024561176215 0.05553346093 130.666044281 -68.1540084986 -111.390777421 0 -200.223726106 0 -199.12040759 200.223726106 -90 -68.1540084986 88.8329486851 111.966531797 127.502254158 -142.497745842 448.408573422 -0.369508503118 -0.594977477634 0.700810576994 -121.551227454 3748031.02769
0.024561176215 0.058224695716 140.399004666 -65.7277332076 -123.991529298 0 -208.426636271 0 -207.278074603 208.426636271 -90 -65.7277332076 84.4351069728 107.002406042 127.903067334 -142.096932666 310.369849095 -0.247811510944 -0.461185770941 0.52378476699 -118.000651653 3003256.13416
0.024561176215 0.060915930501 149.501039027 -63.20241366 -135.434535042 0 -215.968385968 0 -215.223985278 215.968385968 -90 -63.20241366 80.5338509258 102.373181873 128.126914206 -141.873085794 216.653553849 -0.159775252667 -0.337510102304 0.373525071394 -115.06946236 2386699.71427
0.024561176215 0.063299251501 157.771551204 -60.7751320397 -145.566424938 0 -222.74914858 0 -222.076611701 222.74914858 -90 -60.7751320397 77.1827236418 98.2384507128 128.218454963 -141.781545037 154.313153247 -0.0951596614419 -0.22526589263 0.244579823626 -112.69501559 1900987.28555
0.024561176215 0.065285352334 164.79046306 -58.6587290744 -153.979459774 0 -228.464631474 0 -227.650314932 228.464631474 -90 -58.6587290744 74.4851716996 94.8097555751 128.221480162 -141.778519838 113.210254701 -0.0561113495551 -0.146012359902 0.156437130266 -110.87671061 1525281.71744
0.024561176215 0.066940436362 170.537662557 -56.9078132443 -160.751867064 0 -233.125449886 0 -232.197364747 233.125449886 -90 -56.9078132443 72.3735828218 92.0675734882 128.178247271 -141.821752729 83.910734586 -0.0336311025935 -0.0943209750724 0.100142827384 -109.510003676 1211742.11177
0.024561176215 0.068319673052 175.248343039 -55.4722567885 -166.230429699 0 -236.936913252 0 -235.91721125 236.936913252 -90 -55.4722567885 70.7064835531 89.8698041139 128.115713691 -141.884286309 59.8686022394 -0.0195282665974 -0.0581226721828 0.061317583204 -108.465692787 912245.660265
0.024561176215 0.06946903696 180.182234 -54.7591330479 -171.654415718 0 -241.606733076 0 -238.96806365 241.606733076 -90 -54.7591330479 69.952317358 88.8363271595 128.054325708 -141.945674292 39.0644109326 -0.0109364512165 -0.0339907873927 0.0357075499675 -107.70573632 623202.975264
0.024561176215 0.070426840216 185.987141299 -54.7250900404 -177.753709522 0 -247.798417876 0 -241.47591839 247.798417876 -90 -54.7250900404 70.0447083539 88.8881130878 128.000084415 -141.999915585 20.2890629194 -0.00523464396529 -0.0170027565449 0.0177903127451 -107.112045341 350911.686334
0.029483411458 0.028621113072 54.6110613408 -54.1425725985 -6.94107705721 0 -120.989868961 0 -114.961662866 120.989868961 -90 -54.1425725985 114.048791903 126.248877294 115.390442654 -154.609557346 2349.60368517 -1.8685796681 -0.243354324855 1.88521759557 -172.753038174 3501920.88785
0.029483411458 0.031312347858 58.0399630237 -56.8246919097 -11.1031029988 0 -126.181325692 0 -125.330798054 126.181325692 -90 -56.8246919097 115.078222693 128.359211914 116.261037896 -153.738962104 2234.48601733 -1.85872250743 -0.360526248668 1.89793903452 -169.21655688 3749901.44873
0.029483411458 0.034003582644 65.2117974274 -61.8394600039 -20.1859951532 0 -136.50130111 0 -135.580042593 136.50130111 -90 -61.8394600039 116.315305957 131.747738512 117.985511358 -152.014488642 1990.37530091 -1.79744496296 -0.581418928155 1.89377034564 -162.194483777 4204307.7181
0.029483411458 0.036694817429 73.0180512278 -66.05987212 -30.692197162 0 -146.689968421 0 -145.69865436 146.689968421 -90 -66.05987212 115.997771259 133.503604432 119.655483616 -150.344516384 1720.50307064 -1.65431361825 -0.759399961966 1.82462168567 -155.347097745 4537433.07659
0.029483411458 0.039386052215 81.4508421154 -69.334045463 -42.3928581605 0 -156.736427 0 -155.675821366 156.736427 -90 -69.334045463 114.343568839 133.734601719 121.230765802 -148.769234198 1433.25057947 -1.44000438132 -0.866319658296 1.68422127994 -148.812610227 4676456.4738
0.029483411458 0.042077287001 90.4610992984 -71.5960992304 -54.9956948915 0 -166.629709123 0 -165.500672282 166.629709123 -90 -71.5960992304 111.634014232 132.63015662 122.677369023 -147.322630977 1149.90772521 -1.18686600309 -0.893446470269 1.48847366208 -142.707440791 4598532.47754
0.029483411458 0.044768521787 99.9635139334 -72.8645688912 -68.1900584136 0 -176.358794195 0 -175.16229108 176.358794195 -90 -72.8645688912 108.168735781 130.428699557 123.970760672 -146.029239328 900.035155613 -0.941548960358 -0.861989229376 1.27867452142 -137.11001069 4374809.95797
0.029483411458 0.047459756572 109.850083319 -73.2123339077 -81.6972959828 0 -185.912627548 0 -184.649736093 185.912627548 -90 -73.2123339077 104.215331565 127.366449511 125.09534551 -144.90465449 699.864812861 -0.734720678077 -0.802926761892 1.08985058924 -132.048522968 4102380.59839
0.029483411458 0.050150991358 120.006071294 -72.736190567 -95.2933746576 0 -195.280144165 0 -193.952063931 195.280144165 -90 -72.736190567 99.9867695072 123.647732957 126.041444647 -143.958555353 544.281519683 -0.568683616215 -0.731669026965 0.927686744926 -127.508815738 3813029.27814
0.029483411458 0.052842226144 130.320904306 -71.5489254578 -108.800261084 0 -204.450297728 0 -203.058358526 204.450297728 -90 -71.5489254578 95.6500366442 119.451567043 126.80416269 -143.19583731 421.269611249 -0.434545173769 -0.650890016498 0.783257580225 -123.45714772 3490670.8727
0.029483411458 0.05553346093 140.692878678 -69.7805273442 -122.073393464 0 -213.412095272 0 -211.957765663 213.412095272 -90 -69.7805273442 91.338701808 114.944928124 127.384567597 -142.615432403 321.597461608 -0.324966459578 -0.561262274598 0.648944458142 -119.856848599 3115747.38592
0.029483411458 0.058224695716 151.031057921 -67.5723336965 -134.998281858 0 -222.154637715 0 -220.639533171 222.154637715 -90 -67.5723336965 87.1563558566 110.283092254 127.790704735 -142.209295265 240.383055658 -0.236269950311 -0.466774868786 0.523397571892 -116.672825708 2692105.0778
0.029483411458 0.060915930501 160.674600185 -65.2136815271 -146.793135723 0 -230.189990984 0 -229.093056892 230.189990984 -90 -65.2136815271 83.3968552618 105.867336522 128.026841429 -141.973158571 178.620449491 -0.162509867627 -0.361244690703 0.39622953888 -114.015591918 2271939.02195
0.029483411458 0.063299251501 169.427116654 -62.8908645857 -157.289649111 0 -237.411854353 0 -236.380455188 237.411854353 -90 -62.8908645857 80.1222052417 101.856953813 128.130975008 -141.869024992 132.55137674 -0.101183429741 -0.25037252085 0.270091193624 -111.836604264 1881385.07475
0.029483411458 0.065285352334 176.851715292 -60.8268780421 -166.041786547 0 -243.49659344 0 -242.305213578 243.49659344 -90 -60.8268780421 77.4548068932 98.4843323556 128.14402814 -141.85597186 99.1406591527 -0.0610188646491 -0.16519680701 0.176123886078 -110.150116125 1536396.64256
0.029483411458 0.066940436362 182.930382445 -59.0969750704 -173.108260184 0 -248.456420362 0 -247.13659821 248.456420362 -90 -59.0969750704 75.3481601778 95.7591010835 128.108311534 -141.891688466 73.3030399767 -0.0365671670116 -0.106345371276 0.112463902638 -108.8723854 1215728.37422
0.029483411458 0.068319673052 187.912793668 -57.6667578688 -178.836509502 0 -252.510753896 0 -251.087458831 252.510753896 -90 -57.6667578688 73.674244394 93.5593752145 128.051747643 -141.948252357 50.5580989393 -0.0205735212228 -0.0633153211957 0.066576825545 -107.890681472 882838.611217
0.029483411458 0.06946903696 192.003072161 -56.4952319476 -183.496742265 0 -255.833519501 0 -254.326571334 255.833519501 -90 -56.4952319476 72.336777236 91.7841328368 127.990499074 -142.009500926 27.8167460384 -0.00934311757995 -0.0299954777346 0.0314177338816 -107.128132339 502670.575368
0.029483411458 0.070426840216 197.050412412 -55.976549616 -188.92627383 0 -260.75339792 0 -256.988280578 260.75339792 -90 -55.976549616 71.8271240903 91.0632548876 127.93074971 -142.06925029 10.4879030734 -0.00296137479878 -0.00979933236471 0.0102371937161 -106.520360126 193282.327076
0.029483411458 0.071225009597 203.765474616 -56.0866757426 -195.894495711 0 -268.014245012 0 -259.179978438 268.014245012 -90 -56.0866757426 72.1197493008 91.3617722851 127.871784488 -142.128215512 0.568361939318 -0.000150287673947 -0.000524911268312 0.000546002037122 -105.976980016 11799.2986223
0.035390093749 0.028621113072 59.2192905683 -57.8909208105 -12.1711200279 0 -130.631970315 0 -123.92639426 130.631970315 -90 -57.8909208105 118.460850287 131.85294598 116.035629215 -153.964370785 2237.1874908 -2.28372773523 -0.487306335513 2.33756264823 -168.247629179 3922191.80904
0.035390093749 0.031312347858 63.0557482456 -60.4769271857 -17.1211573067 0 -136.243063034 0 -135.114100571 136.243063034 -90 -60.4769271857 119.121905728 133.612745897 116.897193733 -153.102806267 2092.81068275 -2.22223234228 -0.624465567409 2.3156262919 -164.545461907 4136435.83691
0.035390093749 0.034003582644 71.1061880178 -65.1948017471 -27.8150524344 0 -147.398421932 0 -146.174584389 147.398421932 -90 -65.1948017471 119.583369498 136.217412434 118.587323975 -151.412676025 1779.36590626 -2.02933967578 -0.854408391278 2.20874115679 -157.245766298 4446509.18728
0.035390093749 0.036694817429 79.90754576 -68.9352749277 -39.9388864513 0 -158.414190304 0 -157.096147849 158.414190304 -90 -68.9352749277 118.475303853 137.085669528 120.188929991 -149.811070009 1422.99256132 -1.70635053484 -0.967859491278 1.96741134322 -150.253072752 4449160.25202
0.035390093749 0.039386052215 89.419177288 -71.634163498 -53.1259078689 0 -169.278414001 0 -167.866945272 169.278414001 -90 -71.634163498 116.152506132 136.477245386 121.663955573 -148.336044427 1061.02186272 -1.31304199409 -0.946269894166 1.62262272203 -143.754590212 4109213.62911
0.035390093749 0.042077287001 99.5405347156 -73.3590450188 -66.9614767232 0 -179.97898414 0 -178.474989304 179.97898414 -90 -73.3590450188 113.017507416 134.747441087 122.991066339 -147.008933661 760.538861021 -0.959396140334 -0.84992935857 1.28451773163 -137.892665961 3629446.55948
0.035390093749 0.044768521787 110.13217233 -74.2395654089 -81.0944762884 0 -190.503647214 0 -188.908161995 190.503647214 -90 -74.2395654089 109.409170925 132.225430777 124.163928232 -145.836071768 555.688590309 -0.709435060424 -0.755636327312 1.03830223422 -132.716369161 3251957.93335
0.035390093749 0.047459756572 121.047353548 -74.3921817945 -95.2902453381 0 -200.840020834 0 -199.154231367 200.840020834 -90 -74.3921817945 105.549775495 129.135983652 125.182042074 -144.817957926 427.92203949 -0.548947354991 -0.689987583243 0.882911772871 -128.183625365 3041775.48294
0.035390093749 0.050150991358 132.154082776 -73.9017347097 -109.40345346 0 -210.975615708 0 -209.200874128 210.975615708 -90 -73.9017347097 101.572162249 125.614940176 126.04444947 -143.95555053 345.415245325 -0.441568351335 -0.644512931804 0.782062841961 -124.209049565 2941084.16373
0.035390093749 0.052842226144 143.341754452 -72.8368141425 -123.335366938 0 -220.897864566 0 -219.035705072 220.897864566 -90 -72.8368141425 97.5624976276 121.754195856 126.749002718 -143.250997282 284.340315208 -0.359351412785 -0.601733152465 0.70139957383 -120.70448276 2858702.15002
0.035390093749 0.05553346093 154.519062785 -71.2690644295 -137.006437969 0 -230.594158578 0 -228.646313813 230.594158578 -90 -71.2690644295 93.5877206088 117.635769765 127.294615026 -142.705384974 232.502274965 -0.288402444218 -0.549173685812 0.620646034196 -117.59766518 2723508.26956
0.035390093749 0.058224695716 165.60976395 -69.282677269 -150.346498361 0 -240.051891897 0 -238.020309283 240.051891897 -90 -69.282677269 89.7053935361 113.34571318 127.683817452 -142.316182548 185.539740929 -0.224423493859 -0.482806103281 0.53263954678 -114.834886429 2501784.58896
0.035390093749 0.060915930501 175.928209795 -67.1133679581 -162.569070152 0 -248.742556305 0 -247.145372417 248.742556305 -90 -67.1133679581 86.1734861528 109.2250301 127.914392917 -142.085607083 145.241004708 -0.162860739441 -0.390296948242 0.423033962098 -112.505332667 2215262.47631
0.035390093749 0.063299251501 185.281190723 -64.9301610413 -173.494893261 0 -256.550918948 0 -255.008774108 256.550918948 -90 -64.9301610413 83.0560256874 105.424106678 128.018347844 -141.981652156 111.594439813 -0.10532018481 -0.278699787214 0.297989705372 -110.572440014 1892772.99253
0.035390093749 0.065285352334 193.21044321 -62.9553351508 -182.641418093 0 -263.127270232 0 -261.399156342 263.127270232 -90 -62.9553351508 80.4858521388 102.182965288 128.033168039 -141.966831961 84.504867405 -0.0645015712903 -0.185622259086 0.196532653379 -109.060167436 1560307.42724
0.035390093749 0.066940436362 199.700944959 -61.2791745624 -190.049138605 0 -268.485593776 0 -266.607996269 268.485593776 -90 -61.2791745624 78.4364551709 99.5360619951 127.999925876 -142.000074124 61.5374521505 -0.0381632939481 -0.117428225031 0.123483834354 -107.904777722 1212367.72523
0.035390093749 0.068319673052 205.020763791 -59.882307606 -196.067587979 0 -272.863859689 0 -270.865727509 272.863859689 -90 -59.882307606 76.7962717098 97.3836281734 127.946437538 -142.053562462 39.5839014008 -0.0200844856104 -0.0650836280468 0.0681159601524 -107.011817946 816845.849039
0.035390093749 0.06946903696 209.388125403 -58.7334255949 -200.97179813 0 -276.450686326 0 -274.355038101 276.450686326 -90 -58.7334255949 75.4788881962 95.6383275426 127.88903736 -142.11096264 17.8443448107 -0.00750477445908 -0.0252161300018 0.0263102054953 -106.315626846 377468.466672
0.035390093749 0.070426840216 212.979612722 -57.7979410754 -204.978754307 0 -279.396097186 0 -277.221292908 279.396097186 -90 -57.7979410754 74.4173428795 94.2260753863 127.836568763 -142.163431237 3.64413228527 -0.00123441825776 -0.00425287110163 0.00442852273758 -105.769227223 77271.6699237
0.035390093749 0.071225009597 214.733133146 -57.3454204927 -206.9282231 0 -280.833230847 0 -279.580634233 280.833230847 -90 -57.3454204927 73.9050077466 93.5438708911 127.81030359 -142.18969641 0.398342832838 -0.000114562191732 -0.00040977013718 0.000425494901882 -105.509398044 8871.56343017
0.042478112499 0.025929878286 61.1599495363 -59.7201455283 -13.1925602281 0 -136.710764189 0 -123.274614542 136.710764189 -90 -59.7201455283 123.518203961 137.197822474 115.803426253 -154.196573747 2408.96524454 -3.29313157536 -0.727473723696 3.37252629216 -167.543057469 4505414.73808
0.042478112499 0.028621113072 64.3265701162 -61.7448739742 -17.614777594 0 -140.96401993 0 -135.664377787 140.96401993 -90 -61.7448739742 123.349242336 137.951160554 116.579730283 -153.420269717 2232.87921257 -3.00282210127 -0.850496946531 3.12683871128 -164.285887186 4609754.44512
0.042478112499 0.031312347858 70.4858851229 -65.247731054 -25.9873412807 0 -149.450517484 0 -147.931928463 149.450517484 -90 -65.247731054 123.463176203 139.664441909 117.835239189 -152.164760811 1956.68660638 -2.69011696759 -1.06113662419 2.90207744058 -158.711186563 4821107.37215
0.042478112499 0.034003582644 79.7996404353 -69.4697374614 -38.7112356295 0 -161.712831107 0 -160.06468686 161.712831107 -90 -69.4697374614 123.001595477 141.281590464 119.446006124 -150.553993876 1558.18195657 -2.26862662243 -1.23980936228 2.59388242257 -151.289501803 4868058.99029
0.042478112499 0.036694817429 89.9845212959 -72.5374441888 -52.7892780119 0 -173.827068277 0 -172.049808781 173.827068277 -90 -72.5374441888 121.037790265 141.12351464 120.929840825 -149.070159175 1111.07836882 -1.6757703236 -1.18157891586 2.05638175181 -144.346133909 4341432.37207
0.042478112499 0.039386052215 100.938223229 -74.5524201216 -67.6776702544 0 -185.779992388 0 -183.874177331 185.779992388 -90 -74.5524201216 118.102322134 139.675362739 122.262227102 -147.737772898 723.707433612 -1.11502112223 -0.978225057483 1.486961883 -138.116225426 3525846.0808
0.042478112499 0.042077287001 112.488166614 -75.7324634626 -82.8854652131 0 -197.558068904 0 -195.524399481 197.558068904 -90 -75.7324634626 114.67260369 137.431277269 123.443771974 -146.556228026 481.248005286 -0.753657443401 -0.803503299058 1.10381954985 -132.717194964 2926196.40726
0.042478112499 0.044768521787 124.4429955 -76.2536169909 -98.1164663595 0 -209.147465387 0 -206.986808387 209.147465387 -90 -76.2536169909 111.030999028 134.699657016 124.483527573 -145.516472427 353.85307518 -0.560012081193 -0.708173010526 0.904194309242 -128.105197304 2657807.39519
0.042478112499 0.047459756572 136.635023552 -76.2119806915 -113.226684707 0 -220.53405826 0 -218.24747236 220.53405826 -90 -76.2119806915 107.307373553 131.621240755 125.386796489 -144.613203511 284.631912066 -0.451553176717 -0.663011264294 0.803075338455 -124.154672449 2594728.15541
0.042478112499 0.050150991358 148.932413178 -75.6578709023 -128.141317213 0 -231.703447304 0 -229.292211569 231.703447304 -90 -75.6578709023 103.562130091 128.257061099 126.153975815 -143.846024185 240.749530488 -0.379928296932 -0.637839118669 0.743046033058 -120.734539344 2617600.64108
0.042478112499 0.052842226144 161.234074553 -74.6266557515 -142.80975012 0 -242.640979156 0 -240.106623481 242.640979156 -90 -74.6266557515 99.8312290364 124.642648384 126.782821127 -143.217178873 206.946818379 -0.322660915841 -0.612934276926 0.693120150107 -117.736833235 2642752.70452
0.042478112499 0.05553346093 173.461011792 -73.1569254769 -157.187214183 0 -253.33178093 0 -250.676118244 253.33178093 -90 -73.1569254769 96.1445667467 120.813524989 127.271025214 -142.728974786 176.365122371 -0.270015477132 -0.576258526249 0.636694839319 -115.080968988 2610149.93309
0.042478112499 0.058224695716 185.549097258 -71.2999333279 -171.228792709 0 -263.760805234 0 -260.985965004 263.760805234 -90 -71.2999333279 92.5320125246 116.815820778 127.618574018 -142.381425982 146.460861081 -0.218958526919 -0.522364734672 0.566612361185 -112.710034007 2482717.67861
0.042478112499 0.060915930501 196.770395117 -69.2549252768 -184.123063265 0 -273.343987425 0 -271.021350218 273.343987425 -90 -69.2549252768 89.2209241602 112.94530559 127.821152849 -142.178847151 118.538116085 -0.164448973649 -0.433207400446 0.463496097923 -110.696717116 2262651.21517
0.042478112499 0.063299251501 206.92921354 -67.1729209848 -195.682187277 0 -281.953232514 0 -279.667489447 281.953232514 -90 -67.1729209848 86.2710452365 109.338491784 127.906515516 -142.093484484 92.9606689077 -0.108801295519 -0.314082870878 0.332454901319 -109.012034681 1964864.57469