TITLE = "Electromagnetic Field"
VARIABLES = X Y E ER EI EvR EvI EvR' EvI' Ev EvPhase EpR EpI Ep EpPhase EpToEvPhaseShift elConductivity Jr Ji J Jphase QJ
ZONE N=295, E=259, F=FEPOINT, ET=QUADRILATERAL
0.65861764324 0.014900323508 7.00835388357 -4.45009073337 -5.41421431255 0 -9.00528926312 0 -9.20536068168 9.00528926312 -90 -4.45009073337 3.59107495057 5.71831503468 141.09762641 -128.90237359 1441.50030599 -0.138964988423 -0.169072109839 0.2188530245 -129.417719964 35401.1026761
0.65853589357 0.016618369562 7.41692918923 -4.60614247229 -5.81198835269 0 -9.51751561479 0 -10.2676258122 9.51751561479 -90 -4.60614247229 3.7055272621 5.91164553054 141.181540197 -128.818459803 1340.37471037 -0.135843438713 -0.171080503632 0.218483707914 -128.449131678 36680.2673862
0.65846004375 0.018395727859 8.22782857245 -4.88954599899 -6.61583367666 0 -10.528700957 0 -11.3652472373 10.528700957 -90 -4.88954599899 3.91286728036 6.26244710253 141.329657113 -128.670342887 1129.66758617 -0.124462011057 -0.167832253083 0.208977372412 -126.516900806 37950.9810976
0.65839095274 0.020192008638 9.06105822262 -5.13129967613 -7.4664789814 0 -11.556571905 0 -12.4728872753 11.556571905 -90 -5.13129967613 4.09009292362 6.56194507081 141.441161268 -128.558838732 906.25919093 -0.105492152642 -0.152806373653 0.185710861749 -124.544384868 36858.2645161
0.65832832328 0.021988645678 9.90709920565 -5.3330878482 -8.34758364579 0 -12.5884823729 0 -13.5787729417 12.5884823729 -90 -5.3330878482 4.2408987271 6.81374013009 141.507737552 -128.492262448 701.425109692 -0.0849639256868 -0.132347708501 0.15729417429 -122.614155867 34092.877826
0.65827213137 0.023785533326 10.7609481729 -5.50094688885 -9.24715713808 0 -13.6184071981 0 -14.6824526919 13.6184071981 -90 -5.50094688885 4.37125006003 7.02625389388 141.528100213 -128.471899787 540.056479316 -0.0675723330377 -0.113087766161 0.131753511601 -120.782884573 31004.5306585
0.65822235117 0.025582565996 11.6216851029 -5.64153902996 -10.1591759745 0 -14.6459353879 0 -15.7834783016 14.6459353879 -90 -5.64153902996 4.48675941342 7.20818843022 141.504759062 -128.495240938 423.79038266 -0.0544539791213 -0.0976838610008 0.111847803444 -119.074601719 28416.6231726
0.65817895489 0.027379637789 12.4881747783 -5.75984557605 -11.0793252376 0 -15.6706601943 0 -16.8814051923 15.6706601943 -90 -5.75984557605 4.5913349567 7.36588122316 141.441078881 -128.558921119 341.220881224 -0.044820531715 -0.085935444574 0.0969299585725 -117.49508503 26453.4389428
0.65814191312 0.029176645284 13.3592356711 -5.85937708604 -12.0046005315 0 -16.6921784374 0 -17.9757946313 16.6921784374 -90 -5.85937708604 4.68757790593 7.50371553539 141.340246387 -128.659753613 281.912460444 -0.0377146507149 -0.0770587187399 0.085799356925 -116.039543084 25037.4654428
0.65811119448 0.030973484163 14.2337358613 -5.94255858356 -12.9328922453 0 -17.7100924508 0 -19.0662122629 17.7100924508 -90 -5.94255858356 4.77720020546 7.62468010029 141.204895104 -128.795104896 238.243646086 -0.0323614425158 -0.0702663205711 0.0773651869159 -114.698197773 24040.3878941
0.65808676586 0.032770051163 15.1106325047 -6.01107665857 -13.8626680378 0 -18.724009409 0 -20.1522297978 18.724009409 -90 -6.01107665857 4.8613413712 7.73083669387 141.037062367 -128.962937633 205.110578982 -0.0282126554304 -0.0649341295523 0.0708020827849 -113.459619245 23340.4653539
0.65806859233 0.034566243675 15.988981729 -6.06613841493 -14.792761189 0 -19.7335422733 0 -21.2334253035 19.7335422733 -90 -6.06613841493 4.94078108433 7.82365428069 140.838278519 -129.161721481 179.071962124 -0.0248830019302 -0.060572267751 0.0654871061023 -112.312471236 22825.5438017
0.65805663713 0.036361959366 16.8679334069 -6.10866387266 -15.7222301184 0 -20.7383107531 0 -22.3093834906 20.7383107531 -90 -6.10866387266 5.01608063471 7.90424699787 140.609718646 -129.390281354 157.954657355 -0.0221256149982 -0.0568554489196 0.061011344539 -111.246370835 22415.7798057
0.65805086206 0.038157098278 17.3072446246 -6.12688700784 -16.1864749742 0 -21.2392128173 0 -23.3796973887 21.2392128173 -90 -6.12688700784 5.05273784317 7.94159329849 140.488187105 -129.511812895 148.426541603 -0.0208674305583 -0.0551291613628 0.0589463662211 -110.732602439 22229.8963094
0.67154052463 0.014074222765 6.60688059035 -4.09393749216 -5.18359215034 0 -8.40502389124 0 -7.8689802562 8.40502389124 -90 -4.09393749216 3.22143174091 5.20994651101 141.887039673 -128.112960327 1382.91220875 -0.118199747872 -0.149022667395 0.190251785989 -128.220489347 30478.2210177
0.67146500429 0.01571855094 6.99321394541 -4.24166608203 -5.5570949446 0 -8.88594691208 0 -8.78921100425 8.88594691208 -90 -4.24166608203 3.32885196748 5.39247416363 141.955519975 -128.044480025 1286.54295379 -0.115780710758 -0.150825072329 0.190202328251 -127.326536462 31603.557955
0.67139582655 0.017426504717 7.75919953325 -4.51142587482 -6.31013436354 0 -9.83508636069 0 -9.74402232688 9.83508636069 -90 -4.51142587482 3.52495199715 5.72575417634 142.073692642 -127.926307358 1087.62355711 -0.106645914913 -0.148208768986 0.182642609762 -125.544516328 32799.894859
0.67133390604 0.019154674939 8.54637173285 -4.74501349002 -7.10564988209 0 -10.80140403 0 -10.7088235984 10.80140403 -90 -4.74501349002 3.69575414789 6.01497130089 142.157138424 -127.842861576 879.321795017 -0.0912005578729 -0.135659507201 0.163505344905 -123.722229718 32085.6744685
0.67127891988 0.020883104252 9.34495480657 -4.9429705101 -7.92850163536 0 -11.7720322475 0 -11.67220948 11.7720322475 -90 -4.9429705101 3.84353061209 6.26193866478 142.19930432 -127.80069568 689.205439896 -0.0744123026635 -0.118618447341 0.140054562252 -121.93388015 30010.4162868
0.67123084361 0.022611678791 10.1499249476 -5.10999612447 -8.76794168544 0 -12.7408247024 0 -12.6337995484 12.7408247024 -90 -5.10999612447 3.97288301692 6.47318283944 142.199332653 -127.800667347 538.153261546 -0.0600289700081 -0.102463175206 0.118771330036 -120.230202029 27621.620713
0.67118965077 0.024340284735 10.9605468047 -5.25172631954 -9.61890054023 0 -13.7074000141 0 -13.5932161502 13.7074000141 -90 -5.25172631954 4.08849947384 6.65603044049 142.159312492 -127.840687508 427.295553513 -0.0489710607986 -0.0893103949032 0.101868061987 -118.632992367 25567.4362701
0.67115531281 0.026068807891 11.7759032398 -5.37246656477 -10.4776541871 0 -14.6713807457 0 -14.5500846141 14.6713807457 -90 -5.37246656477 4.19372655869 6.81594327289 142.082108403 -127.917891597 347.048983518 -0.0406928637276 -0.0790851842186 0.0889490987053 -117.148470998 23972.0567606
0.67112779946 0.027797136701 12.5950262168 -5.47532879205 -11.3415367903 0 -15.6323927414 0 -15.5040353077 15.6323927414 -90 -5.47532879205 4.29085595119 6.95680163619 141.970484043 -128.029515957 288.462892942 -0.0344851949884 -0.0712282911327 0.0791434811882 -115.773579325 22798.7445549
0.67110707831 0.029525158613 13.416974723 -5.56251749564 -12.208626963 0 -16.5900670294 0 -16.4547021166 16.5900670294 -90 -5.56251749564 4.38144006637 7.08132271826 141.826755136 -128.173244864 244.785681262 -0.0297482047127 -0.0651366232068 0.0716128078478 -114.500634905 21960.4123632
0.67109311506 0.031252762174 14.2408692824 -5.635601495 -13.0774978502 0 -17.5440390682 0 -17.4017240072 17.5440390682 -90 -5.635601495 4.46654121804 7.19142712255 141.65272767 -128.34727233 211.360687502 -0.0260430350913 -0.0603117832329 0.0656978517647 -113.320211062 21367.0902908
0.67108587349 0.032979836608 15.0659033422 -5.69572454943 -13.9470450665 0 -18.4939496895 0 -18.3447452213 18.4939496895 -90 -5.69572454943 4.54690462303 7.2885106838 141.449758824 -128.550241176 184.985868732 -0.0230545087228 -0.0563549531108 0.0608910513457 -112.222709379 20933.2413328
0.67108531538 0.034706271398 15.8913419145 -5.74376479025 -14.8163697238 0 -19.4394459643 0 -19.2834154767 19.4394459643 -90 -5.74376479025 4.62307624052 7.37364216377 141.218874955 -128.781125045 163.529170486 -0.0205689972612 -0.0529767575949 0.0568319023762 -111.199170611 20589.376706
0.67109140097 0.036431958559 16.3038630625 -5.76485200626 -15.2506513033 0 -19.9108054938 0 -20.2173915362 19.9108054938 -90 -5.76485200626 4.66015419052 7.41331898234 141.096631745 -128.903368255 153.817773466 -0.0194307002769 -0.0514021082411 0.0549520664133 -110.705072595 20432.04927
0.68370107565 0.013296782537 5.82146268928 -3.41014273875 -4.71663886993 0 -7.25205691913 0 -6.78740679848 7.25205691913 -90 -3.41014273875 2.5354180492 4.24972550855 143.439702189 -126.560297811 1259.67298805 -0.0807346251436 -0.111191025206 0.137436852202 -125.795716964 21553.7633273
0.68363301206 0.01487162836 6.16552930879 -3.54240357318 -5.04434851655 0 -7.67418722398 0 -7.5920247053 7.67418722398 -90 -3.54240357318 2.62983870743 4.41220249637 143.476764901 -126.523235099 1173.91033649 -0.0795890912701 -0.112732780573 0.138032177603 -125.051824402 22417.2233665
0.68357177717 0.016514137262 6.84582622168 -3.78632940668 -5.70157149345 0 -8.50609095396 0 -8.4303717458 8.50609095396 -90 -3.78632940668 2.80451946051 4.71217964714 143.535473454 -126.464526546 1000.24154506 -0.0744448328512 -0.111454138714 0.134060309405 -123.568858303 23489.658138
0.68351828911 0.018178062263 7.54448888865 -4.00352552591 -6.39292881819 0 -9.35475602431 0 -9.27857129845 9.35475602431 -90 -4.00352552591 2.96182720612 4.98033855177 143.564835971 -126.435164029 822.863004079 -0.0651692558393 -0.103460449427 0.122298009579 -122.043364661 23417.4756644
0.68347217861 0.019842138354 8.25182221957 -4.1929654634 -7.10566809188 0 -10.2077651977 0 -10.1255642084 10.2077651977 -90 -4.1929654634 3.1020971058 5.21605156338 143.560456316 -126.439543684 662.277697737 -0.0549066478018 -0.0925596295125 0.107636676683 -120.535273983 22511.9023193
0.68343342094 0.021506243888 8.96305020684 -4.35718215597 -7.83142097695 0 -11.0592147209 0 -10.9710241124 11.0592147209 -90 -4.35718215597 3.2277937439 5.4228221838 143.521832072 -126.478167928 532.135332562 -0.0458269677255 -0.0820000416455 0.093948650088 -119.084681498 21323.106641
0.68340198925 0.023170257235 9.67774242258 -4.49995785094 -8.56681277882 0 -11.9087777753 0 -11.8146270381 11.9087777753 -90 -4.49995785094 3.34196499647 5.60551030428 143.450281697 -126.549718303 432.711309974 -0.0384817371446 -0.0729870457814 0.0825186837844 -117.709114297 20206.0213377
0.68337785446 0.024834056338 10.3953472987 -4.62434800173 -9.30919969222 0 -12.7561309938 0 -12.6560515371 12.7561309938 -90 -4.62434800173 3.4469313016 5.76796439468 143.347735738 -126.652264262 357.779252772 -0.032704512581 -0.0656338254635 0.0733366201296 -116.415415527 19274.2938592
0.68336098564 0.026497521912 11.1152601144 -4.7327014178 -10.0565585017 0 -13.600953739 0 -13.4949806209 13.600953739 -90 -4.7327014178 3.54439523727 5.91310239144 143.216147294 -126.783852706 301.168529582 -0.0281884003111 -0.0597437517054 0.066064187689 -115.203587395 18550.4136276
0.68335134958 0.028160533586 11.8368695638 -4.82678286938 -10.8073405307 0 -14.4429298843 0 -14.3311002117 14.4429298843 -90 -4.82678286938 3.63558935361 6.04309757762 143.057209508 -126.942790492 257.825345609 -0.0246281966595 -0.0550242388525 0.0602877020251 -114.069777306 18012.0910012
0.68334891106 0.029822972126 12.5595822754 -4.9079159894 -11.5603370471 0 -15.2817470272 0 -15.1641005998 15.2817470272 -90 -4.9079159894 3.72140998013 6.15957258348 142.872270762 -127.127729238 224.025292721 -0.0217769438706 -0.0511998774823 0.0556411725077 -113.008303193 17622.8251463
0.68335363282 0.031484718988 13.282835144 -4.97710689094 -12.3145776589 0 -16.1170973336 0 -15.9936765722 16.1170973336 -90 -4.97710689094 3.80251967464 6.26375939251 142.662346419 -127.337653581 197.0672821 -0.0194437175334 -0.0480317129961 0.0518199436182 -112.012871052 17341.0469136
0.68336547541 0.033145655876 14.0060995045 -5.03514499923 -13.0692557965 0 -16.9486783345 0 -16.8195275563 16.9486783345 -90 -5.03514499923 3.87942253798 6.35662498427 142.428181191 -127.571818809 175.000362834 -0.017483590397 -0.0453162361808 0.0485735544953 -111.077275861 17122.3043249
0.68338439779 0.034805667156 14.2844795827 -4.97301234624 -13.3905213021 0 -17.2237144699 0 -17.6413590832 17.2237144699 -90 -4.97301234624 3.83319316781 6.27911417715 142.408007965 -127.591992035 161.718702669 -0.0154007566311 -0.0413890110503 0.0441623843349 -110.368452334 16505.1612655
0.68341837806 0.036321287237 14.0938067725 -4.76981833694 -13.2621349101 0 -16.9031035606 0 -18.3869721835 16.9031035606 -90 -4.76981833694 3.64096865051 6.00065160473 142.644243669 -127.355756331 154.220381487 -0.0126894045007 -0.0352819714566 0.0374945128845 -109.7814717 15316.8127605
0.69509075383 0.012568559712 5.15409736977 -2.85625137085 -4.28929254627 0 -6.31150870946 0 -5.90554354979 6.31150870946 -90 -2.85625137085 2.0222161632 3.49983266182 144.757148341 -125.242851659 1139.47760436 -0.0548668337748 -0.0820619253755 0.0987296581048 -123.598701195 15279.623644
0.69503102015 0.014078231636 5.46264925055 -2.97521642528 -4.58004985798 0 -6.68535902096 0 -6.61540767978 6.68535902096 -90 -2.97521642528 2.10530916297 3.64494151143 144.769374622 -125.230625378 1065.03816465 -0.0545181180163 -0.0835249489358 0.0997623427558 -122.983988393 15965.6923394
0.69497864878 0.015659328625 6.07123372836 -3.1964641113 -5.16040946689 0 -7.42102406838 0 -7.35813641834 7.42102406838 -90 -3.1964641113 2.26061460148 3.91525559623 144.781407885 -125.218592115 916.715016785 -0.0519125856905 -0.0833859196918 0.0982417493251 -121.757855297 16936.3226051
0.69493450608 0.017262949546 6.69627241933 -3.39814301237 -5.76885469291 0 -8.17300062534 0 -8.11052350981 8.17300062534 -90 -3.39814301237 2.40414593243 4.1627934342 144.768531702 -125.231468298 767.989020205 -0.0465625316516 -0.0786568745473 0.0914188689818 -120.487772689 17227.9393429
0.69489815421 0.018866606289 7.32817549898 -3.57813148857 -6.39423829674 0 -8.92928267582 0 -8.86183162349 8.92928267582 -90 -3.57813148857 2.53504437907 4.38532911874 144.728060478 -125.271939522 633.717789887 -0.0404474892036 -0.0719623661931 0.0825604464662 -119.221902963 17003.4307799
0.69486956836 0.020470169875 7.96233487209 -3.73747376683 -7.0297707265 0 -9.68418349387 0 -9.61177608791 9.68418349387 -90 -3.73747376683 2.65441276737 4.58435722654 144.659799032 -125.340200968 522.592657355 -0.0348354368546 -0.0652736773376 0.0739948742048 -117.992021859 16540.2200214
0.69484872146 0.022073511312 8.59848547264 -3.8786577265 -7.67321320452 0 -10.4374183476 0 -10.3600743595 10.4374183476 -90 -3.8786577265 2.76420514308 4.76304604023 144.564509479 -125.435490521 434.433637381 -0.0300559332445 -0.0592693770967 0.0664599712432 -116.812258446 16027.047912
0.69483558407 0.023676501122 9.23628367888 -4.00381361 -8.32269981422 0 -11.1887056002 0 -11.1064460901 11.1887056002 -90 -4.00381361 2.86600578597 4.92406186168 144.443423441 -125.556576559 365.47997047 -0.0261107217486 -0.0541293157365 0.0601017943263 -115.68956355 15554.1031631
0.6948301248 0.025279012733 9.87534102843 -4.11467874438 -8.97671272332 0 -11.9377659497 0 -11.8506149654 11.9377659497 -90 -4.11467874438 2.96105322641 5.06955377817 144.297853642 -125.702146358 311.657977493 -0.0228953723216 -0.0498348628829 0.0548455548502 -114.625925247 15161.3129196
0.69483230985 0.026880918388 10.5152511273 -4.21263350672 -9.6340247014 0 -12.6843241077 0 -12.5923071373 12.6843241077 -90 -4.21263350672 3.05029940632 5.2012168732 144.128979107 -125.871020893 269.326359931 -0.0202719223754 -0.0462701274571 0.0505183417482 -113.620217339 14855.36908
0.69484210328 0.028482091504 11.1556055682 -4.29876725081 -10.2936326745 0 -13.4281079903 0 -13.3312526014 13.4281079903 -90 -4.29876725081 3.13447531575 5.32038372047 143.937762389 -126.062237611 235.641768609 -0.0181150957897 -0.0433048442052 0.0469428482203 -112.669577313 14629.6532611
0.69485946698 0.030082406198 11.7960042293 -4.37394289535 -10.9547027598 0 -14.1688494891 0 -14.0671852758 14.1688494891 -90 -4.37394289535 3.21414672925 5.42810916276 143.724931135 -126.275068865 208.400061772 -0.0163165713402 -0.0408058019225 0.0439484579762 -111.770302643 14467.3607543
0.69488436055 0.031681736812 12.4360607762 -4.43885740599 -11.6165253765 0 -14.9062852095 0 -14.7998430877 14.9062852095 -90 -4.43885740599 3.289759833 5.52524594635 143.491007615 -126.508992385 185.938805588 -0.0147885864906 -0.038651975203 0.0413856472755 -110.918429227 14347.1990898
0.69491674186 0.033279960481 13.0480139029 -4.49168685416 -12.2502168554 0 -15.6086761495 0 -15.5289693774 15.6086761495 -90 -4.49168685416 3.3584592941 5.60865144818 143.247871931 -126.752128069 167.72422799 -0.0129998440036 -0.0353854986375 0.0376987049928 -110.141937741 14248.8619836
0.69496375456 0.034743403522 13.2807766877 -4.44524436107 -12.5145460843 0 -15.8433086448 0 -16.1925317223 15.8433086448 -90 -4.44524436107 3.3287625605 5.55361893041 143.199412866 -126.800587134 156.616671519 -0.0109629173386 -0.0308122899132 0.0327048927659 -109.550898477 13816.3936357
0.69502741185 0.036032894512 13.2921632407 -4.28937876036 -12.5808972425 0 -15.7791166665 0 -16.7727284238 15.7791166665 -90 -4.28937876036 3.198219424 5.3504660122 143.291823109 -126.708176891 145.988771062 -0.00823727867292 -0.0241262027351 0.025493928423 -108.831059862 12884.6432315
0.69510609843 0.037176739262 13.7234274677 -4.31463865091 -13.0274045309 0 -16.2699135972 0 -17.2830285776 16.2699135972 -90 -4.31463865091 3.24250906627 5.39722776631 143.075040415 -126.924959585 136.363880581 -0.00692986874682 -0.020899909968 0.0220190180286 -108.328122464 12831.7986527
0.69519846366 0.038198556795 14.1069557544 -4.3329802766 -13.4249387104 0 -16.7051383314 0 -17.7346462099 16.7051383314 -90 -4.3329802766 3.28019962102 5.43456638054 142.873448663 -127.126551337 128.452176448 -0.00591453792683 -0.0183080863941 0.0192398645847 -107.890387714 12774.4058967
0.69530337581 0.039118045354 14.4502131173 -4.34599499321 -13.7811075971 0 -17.0936038538 0 -18.1369123049 17.0936038538 -90 -4.34599499321 3.31249625673 5.46446501226 142.685744258 -127.314255742 121.797062283 -0.00511429205646 -0.016204947545 0.0169929140946 -107.50514401 12710.6291802
0.69541988381 0.039951624089 14.7594454549 -4.35485125392 -14.1022969902 0 -17.442642352 0 -18.4975868844 17.442642352 -90 -4.35485125392 3.34034536188 5.4884152403 142.510511248 -127.489488752 116.087445927 -0.00447550006188 -0.0144837542499 0.0151595197162 -107.162511294 12639.8685643
0.69554718816 0.040712978218 14.9117622322 -4.35846819886 -14.2605893226 0 -17.6143231157 0 -18.8231233016 17.6143231157 -90 -4.35846819886 3.35373379306 5.49943409773 142.422605436 -127.577394564 113.340087701 -0.00418094931422 -0.0136797605095 0.0143044113743 -106.99474008 12601.1879487
0.70572324356 0.011888691168 4.58560121166 -2.41014023443 -3.90049575199 0 -5.53823358976 0 -5.18068801892 5.53823358976 -90 -2.41014023443 1.63773783777 2.91402809441 145.845576394 -124.154423606 1027.43304736 -0.0373629565271 -0.0602462077253 0.070899730289 -121.661314346 10900.264628
0.70567239161 0.013337442376 4.86411847359 -2.51760655977 -4.16106263453 0 -5.87214763458 0 -5.81230359411 5.87214763458 -90 -2.51760655977 1.71108500005 3.0441399267 145.839479406 -124.160520594 964.374783428 -0.0374772993144 -0.0616871889456 0.0721896866447 -121.155501566 11461.5569104
0.70562948345 0.014861113041 5.41226008919 -2.71883067858 -4.67900388345 0 -6.52823746458 0 -6.47594259051 6.52823746458 -90 -2.71883067858 1.84923358113 3.28822194299 145.817406932 -124.182593068 840.203503066 -0.0364037544751 -0.0623823953011 0.0722365451418 -120.145250103 12337.8676431
0.70559527856 0.016408328284 5.9755434536 -2.90586258165 -5.22066742252 0 -7.20018848797 0 -7.14902095653 7.20018848797 -90 -2.90586258165 1.97952106545 3.51614853131 145.773972606 -124.226027394 716.956877233 -0.0334612557148 -0.0598691107413 0.068592899164 -119.090108461 12812.7302719
0.70556924838 0.017955460022 6.54450360425 -3.07585946788 -5.77597567956 0 -7.87636766296 0 -7.82109803453 7.87636766296 -90 -3.07585946788 2.1003919834 3.72469811554 145.707764987 -124.292235013 605.362724103 -0.0299070236874 -0.0559554817392 0.0634521629573 -118.028857065 12962.6118552
0.70555136811 0.019502372398 7.11465632447 -3.22887099636 -6.33917698925 0 -8.55128206387 0 -8.49192179663 8.55128206387 -90 -3.22887099636 2.21210507462 3.91406350322 145.618825001 -124.381174999 510.935068791 -0.0265007463009 -0.0518631917282 0.0582459553812 -116.986955767 12919.7004193
0.70554161061 0.021048929509 7.68582277666 -3.3664984738 -6.90878135401 0 -9.22467990229 0 -9.16124215133 9.22467990229 -90 -3.3664984738 2.31589854829 4.08627385096 145.507524202 -124.492475798 433.320033034 -0.0234405411791 -0.0479734905153 0.0533972858662 -115.975935326 12780.5061785
0.70553994625 0.022594994913 8.25777415637 -3.49020215789 -7.48347073558 0 -9.89631222105 0 -9.82881096341 9.89631222105 -90 -3.49020215789 2.41284148547 4.24314897097 145.374597839 -124.625402161 370.531726803 -0.0207912342392 -0.0444747016533 0.0490970824808 -115.002573478 12611.9577537
0.70554634332 0.024140435189 8.83024745951 -3.60124362421 -8.06211177515 0 -10.5659321062 0 -10.4943838075 10.5659321062 -90 -3.60124362421 2.50382033108 4.38624388809 145.220884673 -124.779115327 320.004455394 -0.0185401359362 -0.041422194202 0.0453840520814 -114.070066261 12452.7960462
0.7055607676 0.02568511564 9.40296069945 -3.70068042086 -8.64374153564 0 -11.2332962793 0 -11.1577183924 11.2332962793 -90 -3.70068042086 2.58955474362 4.51685315671 145.047170285 -124.952829715 279.21610794 -0.0166375466081 -0.0387929585846 0.0422117360305 -113.179139047 12319.9840565
0.7055831826 0.027228902775 9.97562250896 -3.78938858323 -9.22753906496 0 -11.8981642757 0 -11.8185758741 11.8981642757 -90 -3.78938858323 2.67062521076 4.63604487831 144.854115489 -125.145884511 246.086541576 -0.0150291733629 -0.0365423060982 0.0395134457616 -112.328958722 12221.1684608
0.70561354954 0.028771663801 10.5479397676 -3.86809035775 -9.81279912349 0 -12.5602991582 0 -12.4767208905 12.5602991582 -90 -3.86809035775 2.7475000347 4.74469873841 144.642222873 -125.357777127 218.887139135 -0.0136595153657 -0.0346064166884 0.0372056440382 -111.517769281 12153.6582878
0.70565182725 0.030313266141 11.1196226374 -3.93738672289 -10.3989073788 0 -13.2194682041 0 -13.1319216161 13.2194682041 -90 -3.93738672289 2.82056082529 4.84354719525 144.411844344 -125.588155656 196.228431181 -0.0124781359309 -0.0329170698618 0.0352036203147 -110.743347177 12108.8238623
0.70569797271 0.031853580115 11.6667753855 -3.99527106107 -10.9611253695 0 -13.8482753085 0 -13.7839510997 13.8482753085 -90 -3.99527106107 2.88714993902 4.92942944836 144.173985874 -125.826014126 177.723857078 -0.0110572205619 -0.0302823909147 0.0322385584268 -110.031550251 12074.3245311
0.70575827462 0.033268096917 12.181401813 -4.04218278876 -11.4910013331 0 -14.4377633192 0 -14.3791672592 14.4377633192 -90 -4.04218278876 2.94676198604 5.00241498367 143.934808813 -126.065191187 162.501416712 -0.00927994505941 -0.026335212739 0.0279227958702 -109.384647941 12038.5779899
0.70583449884 0.034520328582 12.6451268215 -4.07819630066 -11.9693040459 0 -14.9672547328 0 -14.9021458872 14.9672547328 -90 -4.07819630066 2.9979506869 5.06171392048 143.706325249 -126.293674751 150.307354935 -0.00771251990337 -0.022605070572 0.0238848031091 -108.81883693 12001.7129054
0.70592521335 0.035636628662 13.0555362105 -4.10509217865 -12.3932475615 0 -15.4344731717 0 -15.3645006104 15.4344731717 -90 -4.10509217865 3.04122561027 5.10905354132 143.493625113 -126.506374887 140.531802492 -0.00651287305644 -0.0196409221883 0.020692750842 -108.330191806 11962.8711377
0.70602921937 0.036638982454 13.4210229463 -4.12502107587 -12.7712911173 0 -15.8493850702 0 -15.7759017768 15.8493850702 -90 -4.12502107587 3.07809395292 5.1470463244 143.295632611 -126.704367389 132.484615579 -0.00557872290581 -0.0172567729844 0.0181362152311 -107.903297016 11918.9713408
0.70614551085 0.037545721731 13.748626074 -4.13955687484 -13.1105667857 0 -16.2202955185 0 -16.1443967401 16.2202955185 -90 -4.13955687484 3.10972873278 5.17764363581 143.111014397 -126.888985603 125.708915119 -0.00484071724635 -0.0153200919944 0.0160667430587 -107.526256125 11868.6679501
0.70627324075 0.038372123092 14.0442395147 -4.14986402619 -13.4170687061 0 -16.5541225042 0 -16.4766784008 16.5541225042 -90 -4.14986402619 3.13705379809 5.20232130565 142.93835069 -127.06164931 119.891532693 -0.00425031435535 -0.0137334935919 0.0143762178224 -107.189783774 11811.5648483
0.70641169567 0.039130916975 14.1898180578 -4.15421210152 -13.5681022545 0 -16.7182921927 0 -16.7783130347 16.7182921927 -90 -4.15421210152 3.15018993816 5.21371257972 142.85174169 -127.14825831 117.0943274 -0.00397803102255 -0.0129927242313 0.0135880708104 -107.024919533 11780.0800864
0.71562860842 0.011255266765 4.09992983602 -2.05185185924 -3.54913704862 0 -4.89720265596 0 -4.57981086121 4.89720265596 -90 -2.05185185924 1.34806560734 2.45512744123 146.726845055 -123.273154945 927.401308673 -0.0256776241086 -0.0442749808824 0.0511865163201 -119.991925206 7859.71172629
0.71558691165 0.012647199401 4.35289437796 -2.14931867834 -3.78473117292 0 -5.19782407211 0 -5.14628650645 5.19782407211 -90 -2.14931867834 1.4130928992 2.57229394415 146.708276272 -123.291723728 875.004810003 -0.0260294826285 -0.0456790573516 0.0525801890693 -119.575909168 8327.28622635
0.71555378526 0.014117291583 4.84975486686 -2.33279567908 -4.25133854797 0 -5.78760489082 0 -5.74398740148 5.78760489082 -90 -2.33279567908 1.53626634285 2.79327447366 146.663290723 -123.336709277 772.547057912 -0.0258193611523 -0.0468888122528 0.0535324472631 -118.743230626 9109.54978933
0.71552982952 0.015611867831 5.36083408849 -2.50609611364 -4.73851229209 0 -6.39281418515 0 -6.35090287912 6.39281418515 -90 -2.50609611364 1.65430189306 3.0029324456 146.599670598 -123.400329402 671.148399005 -0.0243041077878 -0.0457994604892 0.0518527190687 -117.865235509 9656.02540917
0.7155144041 0.017106239947 5.87680439094 -2.66593533202 -5.23688994508 0 -7.00215598451 0 -6.9568643659 7.00215598451 -90 -2.66593533202 1.76526603943 3.19746538462 146.516906949 -123.483093051 578.54538963 -0.0222935941873 -0.0436619457527 0.0490274600856 -116.973380243 9993.70000432
0.71550748435 0.018600265643 6.39328121533 -2.81171748669 -5.74140239386 0 -7.61031037214 0 -7.5616457738 7.61031037214 -90 -2.81171748669 1.86890797827 3.37624368866 146.415219845 -123.584780155 498.290800559 -0.0202587458065 -0.0412583295564 0.04596635032 -116.088395998 10179.2160946
0.71550904316 0.02009380255 6.91012877401 -2.94444813263 -6.25104740746 0 -8.21705172952 0 -8.16502281376 8.21705172952 -90 -2.94444813263 1.96600432206 3.54054210467 146.294730324 -123.705269676 430.190016244 -0.0183252334017 -0.0388146230373 0.0429251036988 -115.219871495 10261.195921
0.7155190508 0.021586707708 7.42718001767 -3.06510953762 -6.76488789877 0 -8.82215706829 0 -8.76677297575 8.82215706829 -90 -3.06510953762 2.05726916952 3.6915832905 146.155842467 -123.844157533 373.404494207 -0.0165691931877 -0.0364957449714 0.0400824974044 -114.374241412 10286.1257173
0.71553747539 0.023078841285 7.94424335307 -3.17460098454 -7.28207662747 0 -9.42540522283 0 -9.36667720443 9.42540522283 -90 -3.17460098454 2.14332859536 3.830473802 145.999066471 -124.000933529 326.411741949 -0.0150134137371 -0.0343782509559 0.0375148319003 -113.555349207 10285.1148043
0.71556428239 0.024570062085 8.46111116131 -3.27371679584 -7.80186096301 0 -10.0265783693 0 -9.96451832921 10.0265783693 -90 -3.27371679584 2.22471740632 3.95818384316 145.824906837 -124.175093163 287.541540712 -0.0136509620161 -0.0324828392098 0.0352357195967 -112.765097545 10276.5021269
0.71559943492 0.026060230142 8.97756515848 -3.36314603399 -8.32357436951 0 -10.625461198 0 -10.5600823127 10.625461198 -90 -3.36314603399 2.30188682846 4.07555115888 145.633803351 -124.366196649 255.320005916 -0.0124649412001 -0.0308084960516 0.0332354294096 -112.004037385 10272.4891508
0.71564289368 0.027549206193 9.49338165738 -3.44347971303 -8.84662632724 0 -11.221841577 0 -11.1531582619 11.221841577 -90 -3.44347971303 2.37521524973 4.18329292864 145.426095042 -124.573904958 228.444778881 -0.0114315017566 -0.0293337622218 0.0314832085836 -111.271810663 10277.5571739
0.71569461686 0.029036851166 10.0083355573 -3.51522497219 -9.37049042792 0 -11.815511201 0 -11.7435384489 11.815511201 -90 -3.51522497219 2.44502077311 4.28202448941 145.202013797 -124.797986203 205.784654953 -0.0105237998857 -0.0280235635381 0.0299350187469 -110.567494066 10289.6424942
0.71575456073 0.030523028994 10.5017048465 -3.57628209442 -9.87382584813 0 -12.382676731 0 -12.3310195987 12.382676731 -90 -3.57628209442 2.50885088282 4.36863620271 144.971683559 -125.028316441 187.133556196 -0.00939928370746 -0.0259096667045 0.0275623263614 -109.914865347 10303.6186838
0.71582816804 0.031891786753 10.9665647606 -3.62693997417 -10.3492949423 0 -12.9155366 0 -12.8689305994 12.9155366 -90 -3.62693997417 2.56624165768 4.44310571138 144.740604066 -125.259395934 171.688384391 -0.0079642178309 -0.0226900262224 0.0240474535188 -109.317080261 10310.8480301
0.71591696024 0.03310914468 11.386973585 -3.66701117461 -10.780252116 0 -13.3960882629 0 -13.3438330261 13.3960882629 -90 -3.66701117461 2.6158361469 4.5044980624 144.519712349 -125.480287651 159.179611044 -0.00668234416247 -0.0196204170619 0.02072733021 -108.789635475 10308.5612662
0.71601968717 0.0341996367 11.7608607501 -3.69804914392 -11.1642442855 0 -13.8223287099 0 -13.7658087135 13.8223287099 -90 -3.69804914392 2.65808442447 4.55433229525 144.313513043 -125.686486957 149.080369205 -0.0056926405241 -0.0171687779865 0.0180880514303 -108.33002861 10300.2447419
0.71613530069 0.035183724959 12.0955326188 -3.72209359975 -11.5085326885 0 -14.2029053566 0 -14.1432522511 14.2029053566 -90 -3.72209359975 2.69437266819 4.59506385006 144.120860846 -125.879139154 140.733520192 -0.00491671963762 -0.0151900010464 0.0159659961159 -107.925148097 10285.6122494