TITLE = "Electromagnetic Field"
VARIABLES = X Y E ER EI EvR EvI EvR' EvI' Ev EvPhase EpR EpI Ep EpPhase EpToEvPhaseShift elConductivity Jr Ji J Jphase QJ
ZONE N=284, E=249, F=FEPOINT, ET=QUADRILATERAL
0.86270169555 0.016996708547 2.5703556929 -0.781347697382 -2.44871888215 0 -2.89263553688 0 -2.90414702356 2.89263553688 -90 -0.781347697382 0.443916654722 0.898646883121 150.397262219 -119.602737781 239.357868622 -0.000147152146059 -0.000461170154864 0.000484078160865 -107.697065562 790.686212759
0.86383231713 0.016431624727 2.52104620192 -0.766143952048 -2.40181126279 0 -2.83688981735 0 -2.79169702833 2.83688981735 -90 -0.766143952048 0.435078554559 0.881061823458 150.408822688 -119.591177312 240.876246978 -0.000142422023874 -0.000446481789301 0.000468647013173 -107.691843831 765.573876792
0.86496293849 0.015866541016 2.42095672611 -0.734854328098 -2.30673363903 0 -2.72375221787 0 -2.68044982485 2.72375221787 -90 -0.734854328098 0.41701857884 0.844935136148 150.425863214 -119.574136786 242.724380493 -0.000132159136288 -0.000414843861594 0.000435386590398 -107.669931673 711.575560493
0.86609355962 0.015301457426 2.32190557695 -0.702999044547 -2.2129248442 0 -2.61182195626 0 -2.5703930823 2.61182195626 -90 -0.702999044547 0.398897112058 0.808286189495 150.428408277 -119.571591723 240.702041618 -0.000120195423512 -0.000378333620416 0.000396967645321 -107.623304252 649.403074188
0.86722418047 0.014736373971 2.22540810226 -0.671084967839 -2.12181131624 0 -2.5028109786 0 -2.46151461062 2.5028109786 -90 -0.671084967839 0.380999662359 0.771696702539 150.414551619 -119.585448381 231.721085562 -0.000104308113104 -0.000329737663169 0.000345842708075 -107.550133979 574.788157349
0.86831848371 0.014189442004 2.13748372644 -0.64127517109 -2.03901913256 0 -2.40351477193 0 -2.357244236 2.40351477193 -90 -0.64127517109 0.364495639366 0.737625225169 150.386029315 -119.613970685 214.263679285 -8.11052902929e-05 -0.000257752823785 0.00027021221853 -107.457409612 490.714117742
0.8692304033 0.013733665251 2.05827612521 -0.613878894873 -1.96459913378 0 -2.3140866726 0 -2.27117896901 2.3140866726 -90 -0.613878894873 0.349487538822 0.706391467549 150.346277355 -119.653722645 189.214948969 -5.49549297311e-05 -0.000175773766226 0.000184164294898 -107.351575374 401.897602558
0.86999033647 0.013353851201 1.99281698109 -0.590928593641 -1.90318679552 0 -2.24019589391 0 -2.20002723643 2.24019589391 -90 -0.590928593641 0.337009098397 0.680273327276 150.303334975 -119.696665025 162.351266792 -3.6542298291e-05 -0.000117625846084 0.000123171383 -107.248547384 323.20534536
0.87062361424 0.013037339426 1.93864739068 -0.571789495053 -1.85240606222 0 -2.17905826617 0 -2.1411267476 2.17905826617 -90 -0.571789495053 0.326652203954 0.658517230634 150.26121443 -119.73878557 137.388185248 -2.4186959059e-05 -7.83183770771e-05 8.19681700943e-05 -107.153540356 258.753132536
0.87115134582 0.012773579562 1.89376972374 -0.555875151913 -1.81034939164 0 -2.12841381755 0 -2.09231408616 2.12841381755 -90 -0.555875151913 0.318064425904 0.640439072473 150.222148256 -119.777851744 115.846673359 -1.60936022842e-05 -5.23898995368e-05 5.48060844899e-05 -107.068904491 208.126767568
0.87159112221 0.012553779638 1.85655481805 -0.542663534597 -1.77547483522 0 -2.08642065868 0 -2.05182421288 2.08642065868 -90 -0.542663534597 0.310945823461 0.625436685958 150.18714792 -119.81285208 97.4728771906 -1.07727924252e-05 -3.5232759094e-05 3.68429206844e-05 -106.995165223 168.256098977
0.87195760259 0.012370613008 1.83816667614 -0.536135591359 -1.75824212125 0 -2.06567252412 0 -2.01821223157 2.06567252412 -90 -0.536135591359 0.307430402872 0.618024938762 150.169215936 -119.830784064 88.2114724768 -8.48579673981e-06 -2.78289401054e-05 2.90939624957e-05 -106.957882052 149.026963688
0.86075495834 0.018734158592 2.8609208956 -0.862543614805 -2.72779890818 0 -3.22055448571 0 -3.23211996799 3.22055448571 -90 -0.862543614805 0.492755577536 0.993372813516 150.261453042 -119.738546958 226.385551935 -0.000165746888763 -0.000524175443931 0.000549756243398 -107.547214047 926.46797183
0.86187427871 0.018147303757 2.80880312408 -0.847560408412 -2.67787522342 0 -3.1616133572 0 -3.11330364663 3.1616133572 -90 -0.847560408412 0.483738133784 0.975890054306 150.28523381 -119.71476619 228.771316624 -0.00016162558247 -0.000510661579039 0.000535628696182 -107.563136907 902.391470842
0.86299359893 0.017560449006 2.6594684995 -0.805123971275 -2.53466809766 0 -2.99296335422 0 -2.99574225274 2.99296335422 -90 -0.805123971275 0.458295256561 0.926422952165 150.351390668 -119.648609332 235.384799338 -0.000151097633013 -0.000475679181295 0.000499100571541 -107.623489807 832.41574013
0.86411291898 0.016973594347 2.55982848191 -0.775804913495 -2.43943512676 0 -2.88042524877 0 -2.87942315257 2.88042524877 -90 -0.775804913495 0.440990122011 0.892382050587 150.385393362 -119.614606638 239.124584474 -0.00014315344007 -0.000450119458741 0.000472335262333 -107.642713182 783.564655113
0.86523223883 0.016386739792 2.45804375876 -0.744211778914 -2.34267446888 0 -2.76538048376 0 -2.76433384899 2.76538048376 -90 -0.744211778914 0.422706014874 0.855880634161 150.404195767 -119.595804233 241.12748437 -0.000132947575565 -0.000418485209339 0.000439095735699 -107.624189555 728.728433721
0.86635155846 0.015799885351 2.35730909986 -0.712029272305 -2.24720183638 0 -2.65155615894 0 -2.65046198014 2.65155615894 -90 -0.712029272305 0.404354322561 0.818833429674 150.408403133 -119.591596867 239.283558076 -0.000121009946038 -0.000381887392914 0.000400601442259 -107.580916108 665.436237601
0.86747087785 0.01521303104 2.25916580597 -0.679770182025 -2.15446918177 0 -2.54069350419 0 -2.53779532115 2.54069350419 -90 -0.679770182025 0.386224322415 0.78182914548 150.396089112 -119.603910888 230.511898473 -0.000105096275673 -0.000333030802152 0.000349220368446 -107.51100402 589.300137143
0.86855424735 0.014645025066 2.16973702548 -0.64962375261 -2.0702034055 0 -2.43970477009 0 -2.42988359567 2.43970477009 -90 -0.64962375261 0.369501364591 0.747356931197 150.368907507 -119.631092493 213.283379484 -8.17758369055e-05 -0.00026046844263 0.000273003996588 -107.421223212 503.360362192
0.86945705547 0.014171686645 2.08917000022 -0.621906453028 -1.9944569817 0 -2.34874731988 0 -2.34080310116 2.34874731988 -90 -0.621906453028 0.354290338177 0.715743939169 150.330313204 -119.669686796 188.464429272 -5.54472387564e-05 -0.00017772045667 0.000186169263849 -107.318004051 412.450875539
0.87020939573 0.013777237876 2.02258441113 -0.598679149555 -1.93194897189 0 -2.27358933968 0 -2.26715201594 2.27358933968 -90 -0.598679149555 0.341640367786 0.6893003421 150.288297187 -119.711702813 161.794115288 -3.68912125381e-05 -0.000118983440343 0.00012457140751 -107.217100631 331.828383432
0.87083634607 0.013448530505 1.96748058891 -0.57930363903 -1.88026164972 0 -2.2114007783 0 -2.20617798369 2.2114007783 -90 -0.57930363903 0.331139128574 0.667267495137 150.246924772 -119.753075228 136.980932852 -2.4430326092e-05 -7.92546790969e-05 8.29346161339e-05 -107.123816781 265.751306308
0.87135880477 0.013174607647 1.92182751866 -0.563189072834 -1.83745381409 0 -2.15988408896 0 -2.15564378668 2.15988408896 -90 -0.563189072834 0.322430274863 0.648955529911 150.208467134 -119.791532866 115.541003165 -1.6261305231e-05 -5.30307308595e-05 5.54679231693e-05 -107.040578587 213.803618787
0.87179418709 0.012946338563 1.88396862452 -0.549808790429 -1.8019561825 0 -2.11716653181 0 -2.11372375268 2.11716653181 -90 -0.549808790429 0.315210349314 0.633756516977 150.173964825 -119.826035175 97.233405568 -1.08872373678e-05 -3.56685283709e-05 3.72931173419e-05 -106.967975108 172.860834254
0.87215700574 0.012756114301 1.86526201731 -0.543196875618 -1.78441553339 0 -2.09606017167 0 -2.07892306017 2.09606017167 -90 -0.543196875618 0.311644638285 0.626246953086 150.15627739 -119.84372261 88.0000522234 -8.5765453213e-06 -2.81740555239e-05 2.94505470531e-05 -106.931246727 153.106614641
0.86108066584 0.019335502838 2.90332800032 -0.872477232877 -2.76913132118 0 -3.26815381093 0 -3.32996903563 3.26815381093 -90 -0.872477232877 0.499022489745 1.00510707155 150.232488134 -119.767511866 224.343295311 -0.000166135822052 -0.000527276997845 0.000552831311208 -107.489057547 945.480266513
0.86218851346 0.018726965114 2.85037873725 -0.857386026856 -2.71837073311 0 -3.20827819469 0 -3.20728822881 3.20827819469 -90 -0.857386026856 0.489907461573 0.987481919877 150.257287172 -119.742712828 226.784591552 -0.000162070567419 -0.000513838957374 0.000538792774629 -107.506666128 921.181611849
0.86329636093 0.018118427469 2.74305146555 -0.826376308096 -2.61561213968 0 -3.08692537837 0 -3.08588751657 3.08692537837 -90 -0.826376308096 0.471313238689 0.951332891959 150.302971866 -119.697028134 231.568578847 -0.000153583459418 -0.000486106099375 0.000509791378429 -107.534365471 871.17304552
0.86440420824 0.017509889911 2.63682083639 -0.794803794646 -2.51418094405 0 -2.96684227265 0 -2.96575428021 2.96684227265 -90 -0.794803794646 0.452661328592 0.914666907467 150.337949192 -119.662050808 235.635954316 -0.000144524220442 -0.000457159293312 0.000479460157794 -107.543935828 819.247728456
0.86551205538 0.01690135245 2.53167453945 -0.762626768376 -2.41407786246 0 -2.84801673115 0 -2.84687603252 2.84801673115 -90 -0.762626768376 0.433938868688 0.87744097212 150.360316747 -119.639683253 237.940778708 -0.000134440779038 -0.000425555610643 0.000446286947633 -107.532174151 762.794656103
0.86661990232 0.016292815098 2.42760092707 -0.729812125565 -2.31530042919 0 -2.73043679647 0 -2.72924041788 2.73043679647 -90 -0.729812125565 0.415136367286 0.83962136272 150.36788395 -119.63211605 236.445380858 -0.000122564250351 -0.000388806117481 0.000407666920401 -107.495596105 697.315439257
0.86772774905 0.015684277867 2.32619271888 -0.696884163895 -2.21935123266 0 -2.61590172148 0 -2.61283521196 2.61590172148 -90 -0.696884163895 0.396550488811 0.801810398557 150.358683697 -119.641316303 228.082891821 -0.00010660821824 -0.000339454108567 0.000355801241954 -107.432191333 618.180480076
0.86880001901 0.015095282816 2.23377903982 -0.666083173773 -2.1321576939 0 -2.51155557128 0 -2.5013285273 2.51155557128 -90 -0.666083173773 0.379397877386 0.766557009252 150.33420421 -119.66579579 211.302778758 -8.3066534923e-05 -0.000265771131293 0.000278450043567 -107.348290583 528.542790388
0.86969357749 0.014604453503 2.15051440121 -0.637740180311 -2.05377569942 0 -2.41756393264 0 -2.40927026885 2.41756393264 -90 -0.637740180311 0.363788233219 0.73420332597 150.297939617 -119.702060383 186.935721485 -5.63970431438e-05 -0.000181523902319 0.000190083116221 -107.250296463 433.472953086
0.87043820971 0.014195428996 2.08169317225 -0.61397206388 -1.98909038576 0 -2.3398914651 0 -2.33315023392 2.3398914651 -90 -0.61397206388 0.350801079339 0.707123179565 150.257785533 -119.742214467 160.647725633 -3.75652909581e-05 -0.000121636377368 0.00012730504448 -107.153641586 349.008298451
0.87105873667 0.01385457518 2.02473495997 -0.594134380081 -1.93560136197 0 -2.27561728179 0 -2.27012743486 2.27561728179 -90 -0.594134380081 0.340015919824 0.684548443201 150.217915347 -119.782084653 136.132534609 -2.49009007982e-05 -8.10843206616e-05 8.48217398232e-05 -107.063805805 279.694590223
0.87157584254 0.013570530288 1.97754260382 -0.57762799179 -1.8913006145 0 -2.22236940763 0 -2.21789196577 2.22236940763 -90 -0.57762799179 0.331068793132 0.665778274686 150.180678706 -119.819321294 114.894844121 -1.6585456751e-05 -5.42819237706e-05 5.67591992916e-05 -106.983365969 225.109803746
0.87200676417 0.013333826177 1.93840519036 -0.563917383202 -1.85456458557 0 -2.17821396763 0 -2.17455839323 2.17821396763 -90 -0.563917383202 0.323649382059 0.650193657664 150.147175083 -119.852824917 96.7182925669 -1.11079836093e-05 -3.65174912885e-05 3.81695590674e-05 -106.913037651 182.021902795
0.87236586557 0.013136572727 1.91906631244 -0.55714095002 -1.83641189396 0 -2.15639653272 0 -2.13858265964 2.15639653272 -90 -0.55714095002 0.319984638757 0.64249220203 150.129977911 -119.870022089 87.5400178585 -8.75119709378e-06 -2.88449924762e-05 3.01432786221e-05 -106.877420916 161.215344935
0.86141640381 0.019931307315 2.9875250736 -0.891975444876 -2.85125876659 0 -3.362645392 0 -3.42633121268 3.362645392 -90 -0.891975444876 0.511386625406 1.0281715608 150.173852959 -119.826147041 220.292309388 -0.000166789996054 -0.000533137841621 0.00055861899964 -107.37236338 983.029699313
0.86251234209 0.01930132463 2.93293445094 -0.876682144343 -2.79884319376 0 -3.30092577278 0 -3.29987399033 3.30092577278 -90 -0.876682144343 0.502082579022 1.01027668816 150.200713992 -119.799286008 222.840907186 -0.000162840151989 -0.000519862520359 0.000544769941745 -107.393330899 958.323185608
0.86360828024 0.018671342019 2.82227371907 -0.845236874331 -2.69273025175 0 -3.17582746235 0 -3.17471952457 3.17582746235 -90 -0.845236874331 0.483097210603 0.973554639808 150.250490879 -119.749509121 227.854814121 -0.000154572718564 -0.000492423434843 0.000516114145152 -107.427856732 907.399126813
0.86470421825 0.018041359488 2.71273058011 -0.813179917642 -2.58797990028 0 -3.05202152951 0 -3.05085525787 3.05202152951 -90 -0.813179917642 0.464041629232 0.936267294153 150.289340329 -119.710659671 232.177691851 -0.000145698323539 -0.000463681644979 0.000486033796299 -107.444216879 854.339879403
0.86580015611 0.017411377049 2.60429258077 -0.780469026285 -2.48459318227 0 -2.9294958972 0 -2.92826875928 2.9294958972 -90 -0.780469026285 0.444902714932 0.898371012663 150.31536288 -119.68463712 234.771442414 -0.000135755772501 -0.000432160943116 0.000452982176074 -107.439201026 796.40140892
0.86689609379 0.01678139471 2.49694793466 -0.747070860897 -2.38256786685 0 -2.80823867398 0 -2.80694772326 2.80823867398 -90 -0.747070860897 0.425670807127 0.859831731977 150.326373093 -119.673626907 233.613316394 -0.000123961657095 -0.000395318022266 0.000414298147016 -107.409315609 728.86131734
0.86799203128 0.016151412485 2.39233977761 -0.713520421505 -2.28345640561 0 -2.6901059986 0 -2.68687997117 2.6901059986 -90 -0.713520421505 0.406649592985 0.821264496348 150.320362071 -119.679637929 225.651500681 -0.000107989679859 -0.000345540874921 0.000362022627634 -107.352428649 646.845996014
0.86905277906 0.015541658459 2.29699936721 -0.682106222649 -2.19338361475 0 -2.58246936256 0 -2.57184968375 2.58246936256 -90 -0.682106222649 0.389085747808 0.785274934585 150.298648459 -119.701351541 209.315498042 -8.42609970605e-05 -0.000270826994479 0.000283632257816 -107.274430138 553.61343798
0.8699367357 0.015033530008 2.21108863402 -0.653173884392 -2.11240900465 0 -2.4855027804 0 -2.47687152185 2.4855027804 -90 -0.653173884392 0.373093775749 0.752220178543 150.264766578 -119.735233422 185.400453267 -5.72861486981e-05 -0.000185172986516 0.000193831820608 -107.181691756 454.465920836
0.87067336637 0.014610089557 2.14007370215 -0.628894186001 -2.04558141372 0 -2.40536402795 0 -2.39832965767 2.40536402795 -90 -0.628894186001 0.359782614227 0.7245353867 150.226514685 -119.773485315 159.497205975 -3.82021216546e-05 -0.000124195684236 0.000129938389118 -107.089317216 366.212787866
0.87128722536 0.014257222459 2.08129535752 -0.608617881631 -1.99031937871 0 -2.33904358958 0 -2.33329660743 2.33904358958 -90 -0.608617881631 0.348724210867 0.701444499996 150.188177272 -119.811822728 135.2828223 -2.5348835954e-05 -8.28579166731e-05 8.66487362076e-05 -107.00296 293.693139119
0.87179877458 0.013963166502 2.03259178769 -0.591738695419 -1.9445493051 0 -2.28409678583 0 -2.2793914462 2.28409678583 -90 -0.591738695419 0.339547480733 0.682236942397 150.152184804 -119.847815196 114.250119346 -1.68957120794e-05 -5.54992177752e-05 5.80140531501e-05 -106.925346347 236.48276547
0.87222506566 0.013718119839 1.9921989194 -0.577713175362 -1.90659432033 0 -2.23852996292 0 -2.2346702966 2.23852996292 -90 -0.577713175362 0.331935642594 0.666283603716 150.119697511 -119.880302489 96.2072542399 -1.1320103936e-05 -3.7345690185e-05 3.90236609175e-05 -106.857317828 191.250091449
0.87258030826 0.013513914264 1.9722391132 -0.570779743309 -1.88783916534 0 -2.21601448486 0 -2.19754091167 2.21601448486 -90 -0.570779743309 0.328175319523 0.658398496513 150.102998896 -119.897001104 87.0855112409 -8.91937541451e-06 -2.95004806755e-05 3.08193743485e-05 -106.822825299 169.389193576
0.8606777526 0.0211730085 3.228844957 -0.950979033715 -3.08562451276 0 -3.63437858164 0 -3.65273649125 3.63437858164 -90 -0.950979033715 0.548754068878 1.09794906561 150.013283676 -119.986716324 208.803895773 -0.000174734312504 -0.000566957271158 0.000593272810169 -107.12912097 1088.43621813
0.86176110714 0.020521968135 3.12450938972 -0.924466858392 -2.98461097499 0 -3.51666879406 0 -3.52128509624 3.51666879406 -90 -0.924466858392 0.532057819073 1.06664215915 150.079521475 -119.920478525 213.749503784 -0.000169788545266 -0.000548145756093 0.000573840139825 -107.212024625 1043.08829716
0.86284446158 0.019870927832 3.01423923805 -0.895256094843 -2.8782188851 0 -3.39214128923 0 -3.39116857855 3.39214128923 -90 -0.895256094843 0.51392240413 1.03227916482 150.142824852 -119.857175148 218.96140767 -0.000163396342903 -0.000525302685542 0.000550128743701 -107.279289028 994.539430668
0.86392781591 0.019219887596 2.90031974182 -0.863426527905 -2.76881583259 0 -3.26338400481 0 -3.26237437629 3.26338400481 -90 -0.863426527905 0.494568172219 0.995039420197 150.196793304 -119.803206696 224.190766782 -0.000155360778476 -0.000498197985687 0.000521860582344 -107.320587155 942.838154535
0.86501117012 0.018568847435 2.78753676766 -0.830935217846 -2.66080847826 0 -3.1359392933 0 -3.13489004736 3.1359392933 -90 -0.830935217846 0.475130815038 0.957184882003 150.239607469 -119.760392531 228.755284185 -0.000146685367262 -0.000469705043046 0.000492076839326 -107.343695498 888.780045093
0.86609452419 0.017917807357 2.67587774649 -0.797739345113 -2.554198259 0 -3.0097951911 0 -3.00870326917 3.0097951911 -90 -0.797739345113 0.455596932095 0.918671213957 150.269371062 -119.730628938 231.624918066 -0.000136900056468 -0.000438315085297 0.000459196999248 -107.34539696 829.487108981
0.86717787811 0.017266767372 2.56533077917 -0.763805282925 -2.4489832515 0 -2.88493991677 0 -2.88380183894 2.88493991677 -90 -0.763805282925 0.435956665278 0.879463947756 150.283904056 -119.716095944 230.792293206 -0.000125207545759 -0.000401432222496 0.000420505506177 -107.322189191 760.012620291
0.86826123186 0.016615727491 2.45758840469 -0.729677932838 -2.34676498226 0 -2.76328534382 0 -2.76017367456 2.76328534382 -90 -0.729677932838 0.416520361559 0.840189972618 150.281154872 -119.718845128 223.221745549 -0.000109243994482 -0.000351295635814 0.000367889910132 -107.271818712 675.237486675
0.86930980451 0.015985589213 2.35938011729 -0.697691248618 -2.25386246448 0 -2.65242594351 0 -2.64171590164 2.65242594351 -90 -0.697691248618 0.398563479026 0.803508575135 150.262268817 -119.737731183 207.324371135 -8.53608010593e-05 -0.000275636897855 0.000288551979269 -107.199734313 578.517373582
0.87018361519 0.015460473893 2.27087541961 -0.668205454193 -2.17033905818 0 -2.55254436567 0 -2.5438959329 2.55254436567 -90 -0.668205454193 0.382205307488 0.76979187778 150.230821326 -119.769178674 183.860077071 -5.81148685983e-05 -0.000188666226157 0.000197414080546 -107.112273614 475.380998383
0.87091179088 0.015022877725 2.19770922467 -0.643443090938 -2.10140490111 0 -2.46998810525 0 -2.46299595095 2.46998810525 -90 -0.643443090938 0.368583204144 0.741534012085 150.194511253 -119.805488747 158.343093677 -3.88015119081e-05 -0.000126659269661 0.000132469403032 -107.024204127 383.400468552
0.87151860403 0.0146582142 2.13714541965 -0.622751507299 -2.04439909 0 -2.4016612503 0 -2.39600480275 2.4016612503 -90 -0.622751507299 0.357262160306 0.717952490467 150.157736982 -119.842263018 134.431878606 -2.57738104303e-05 -8.45735542606e-05 8.84136927415e-05 -106.94135038 307.712809161
0.87202428172 0.01435432789 2.08695904992 -0.605518403378 -1.99718371253 0 -2.3450481598 0 -2.34047276414 2.3450481598 -90 -0.605518403378 0.347864447264 0.698328205809 150.123011974 -119.876988026 113.606727263 -1.71917662403e-05 -5.66810854605e-05 5.92309413215e-05 -106.866586299 247.894405401
0.87244567985 0.01410108927 2.04533407295 -0.591193287192 -1.95802956535 0 -2.29809677268 0 -2.29439927196 2.29809677268 -90 -0.591193287192 0.340067207328 0.682022922953 150.091558921 -119.908441079 95.700181868 -1.15233508405e-05 -3.81519737921e-05 3.98542534795e-05 -106.800878672 200.522093645
0.87279684498 0.013890057065 2.02476481685 -0.584110330724 -1.9386816948 0 -2.27489643677 0 -2.25614529087 2.27489643677 -90 -0.584110330724 0.336214741969 0.67396235676 150.075367328 -119.924632672 86.6364766948 -9.08086991682e-06 -3.01395643758e-05 3.14778616489e-05 -106.767521187 177.607175798
0.86104682485 0.021777685449 3.27086114545 -0.959907397 -3.12683510208 0 -3.68149219383 0 -3.74953298359 3.68149219383 -90 -0.959907397 0.554657091748 1.10863299392 149.979987611 -120.020012389 206.7925769 -0.000174673179975 -0.000568965078889 0.000595174260407 -107.06676828 1106.09469835
0.86211767535 0.021105538358 3.21248046774 -0.944592729642 -3.07046573538 0 -3.61550335071 0 -3.61443834384 3.61550335071 -90 -0.944592729642 0.545037615333 1.09056053437 150.015632227 -119.984367773 209.551971749 -0.000171138301396 -0.000556283069826 0.000582013471109 -107.101330586 1081.04199602
0.86318852577 0.020433391323 3.09420114662 -0.913095108012 -2.95640425792 0 -3.48182086467 0 -3.48069664322 3.48182086467 -90 -0.913095108012 0.525416606751 1.05347326923 150.083713076 -119.916286924 215.154021491 -0.000163770164998 -0.000530241100505 0.000554956462337 -107.164744315 1029.75259169
0.8642593761 0.019761244348 2.97708851155 -0.880927566578 -2.8437675139 0 -3.34948088755 0 -3.34829546886 3.34948088755 -90 -0.880927566578 0.505713373649 1.01576564973 150.141967038 -119.858032962 220.584753209 -0.000155974984676 -0.000503501834249 0.000527107743903 -107.212742533 977.401868706
0.86533022632 0.01908909744 2.86112950602 -0.848047062276 -2.7325576952 0 -3.21847144376 0 -3.2172225211 3.21847144376 -90 -0.848047062276 0.485913748561 0.977392604189 150.188829885 -119.811170115 225.376548989 -0.000147508582983 -0.000475290806697 0.000497654835174 -107.242533546 922.468499538
0.86640107642 0.018416950608 2.74631146975 -0.814410151164 -2.62277669868 0 -3.08878072357 0 -3.08746561317 3.08878072357 -90 -0.814410151164 0.466004024893 0.93830903391 150.222408017 -119.777591983 228.506758794 -0.00013789190825 -0.000444066066912 0.000464982794231 -107.250892841 861.937722673
0.86747192639 0.01774480386 2.63262240824 -0.779982891287 -2.51442296215 0 -2.96039709407 0 -2.95901267142 2.96039709407 -90 -0.779982891287 0.445974131924 0.898480028258 150.240526355 -119.759473645 227.982246983 -0.000126313780716 -0.000407178866004 0.000426321382314 -107.234309273 790.635467756
0.86854277622 0.017072657207 2.52180336603 -0.745319451956 -2.40914636274 0 -2.83528715307 0 -2.83185173669 2.83528715307 -90 -0.745319451956 0.426140790336 0.858543624704 150.241089815 -119.758910185 220.783151779 -0.000110374956466 -0.00035672525406 0.000373410827457 -107.190409929 703.195413877
0.86957925089 0.016422086959 2.42077871237 -0.712796651077 -2.31345739792 0 -2.72126445738 0 -2.70999204582 2.72126445738 -90 -0.712796651077 0.407807059455 0.821209942119 150.225068869 -119.774931131 205.305040432 -8.63620904547e-05 -0.000280185436964 0.000293193394113 -107.124202435 603.070352341
0.8704429799 0.015879945006 2.32972566635 -0.68278939622 -2.22742347272 0 -2.6185204853 0 -2.60935072446 2.6185204853 -90 -0.68278939622 0.391097012581 0.786866152798 150.196082789 -119.803917211 182.275481949 -5.8874365058e-05 -0.00019197382558 0.000200798845254 -107.041990253 496.016931337
0.87116275418 0.015428159983 2.25444530221 -0.657570317105 -2.15641383121 0 -2.53358948464 0 -2.52610908808 2.53358948464 -90 -0.657570317105 0.377175653437 0.758063518592 150.161732685 -119.838267315 157.135248576 -3.93531326891e-05 -0.000128993190126 0.000134862622171 -106.958209087 400.366408533
0.87176256615 0.015051672418 2.19212632312 -0.636484504943 -2.09768962905 0 -2.46329112077 0 -2.45717316353 2.46329112077 -90 -0.636484504943 0.365601491718 0.734014349438 150.126534128 -119.873465872 133.522985101 -2.61660499608e-05 -8.61992962471e-05 9.00832200557e-05 -106.878849815 321.555140851
0.87226240952 0.014737932745 2.14048196249 -0.618914593003 -2.0490497656 0 -2.40504033014 0 -2.40002507613 2.40504033014 -90 -0.618914593003 0.355990564541 0.713992037881 150.093085545 -119.906914455 112.903457364 -1.74650038316e-05 -5.77993642899e-05 6.03804192524e-05 -106.806931323 259.154936584
0.87267894569 0.014476482991 2.09764525579 -0.604303819034 -2.00871358362 0 -2.35672785468 0 -2.3526080774 2.35672785468 -90 -0.604303819034 0.348014271059 0.697350055516 150.062673313 -119.937326687 95.1307364419 -1.17101581401e-05 -3.8911530996e-05 4.06354016242e-05 -106.743543651 209.652883966
0.87302605921 0.014258608177 2.07647656978 -0.597078156753 -1.98878142772 0 -2.33285420169 0 -2.31323673423 2.33285420169 -90 -0.597078156753 0.344072773974 0.689121490676 150.0469918 -119.9530082 86.122990867 -9.2285722617e-06 -3.07388769933e-05 3.20943196876e-05 -106.711321354 185.684556374
0.86036753181 0.02306942508 3.52027235805 -1.01672239014 -3.37025118592 0 -3.96221955549 0 -3.98474227922 3.96221955549 -90 -1.01672239014 0.59196836957 1.17649945567 149.790664025 -120.209335975 195.118502686 -0.000180756442955 -0.000599174978477 0.000625846264272 -106.7872789 1208.98521525
0.86142515536 0.022376619908 3.41083084167 -0.990796097709 -3.26374968663 0 -3.83879256622 0 -3.84475698743 3.83879256622 -90 -0.990796097709 0.575042879581 1.14557970872 149.871101156 -120.128898844 200.191816175 -0.000176601994254 -0.000581719642161 0.000607936595245 -106.889222717 1164.05993512
0.86248277883 0.021683814779 3.29425919491 -0.96195656791 -3.15067707932 0 -3.70718809573 0 -3.70615165886 3.70718809573 -90 -0.96195656791 0.556511016415 1.11133519575 149.950710755 -120.049289245 205.653194194 -0.000171055401702 -0.00056023961594 0.000585772071445 -106.979804852 1115.60305715
0.86354040224 0.0209910097 3.17285048211 -0.930220912237 -3.03342315549 0 -3.56999886143 0 -3.56891397903 3.56999886143 -90 -0.930220912237 0.53657570594 1.07388321778 150.023411067 -119.976588933 211.420223079 -0.00016395921655 -0.000534654644641 0.000559230385059 -107.049838737 1063.94703801
0.86459802556 0.020298204674 3.05262354655 -0.897764041757 -2.91762238219 0 -3.4341673767 0 -3.43303173866 3.4341673767 -90 -0.897764041757 0.516544994511 1.03576036515 150.086039437 -119.913960563 217.03828298 -0.000156412198974 -0.00050831135429 0.000531832218544 -107.104458334 1011.07677449
0.86565564879 0.019605399708 2.9335652781 -0.864542151168 -2.80327751649 0 -3.29968186779 0 -3.29849283374 3.29968186779 -90 -0.864542151168 0.496404351302 0.996920643509 150.137033502 -119.862966498 222.043372536 -0.000148164542444 -0.000480416023534 0.000502744966223 -107.140865284 955.396341945
0.86671327193 0.018912594808 2.81566295355 -0.830511124554 -2.69039098183 0 -3.16653072106 0 -3.16528526568 3.16653072106 -90 -0.830511124554 0.476139739224 0.95731813211 150.17450268 -119.82549732 225.420522682 -0.000138728588141 -0.000449394606025 0.00047032040873 -107.155828293 893.75433292
0.86777089495 0.018219789983 2.69890451015 -0.795636646451 -2.57896164969 0 -3.03470249404 0 -3.03339714298 3.03470249404 -90 -0.795636646451 0.455740844348 0.916917406164 150.196277226 -119.803722774 225.191268061 -0.000127279965323 -0.000412547445563 0.000431735688479 -107.145828036 820.749992885
0.86882851785 0.017526985241 2.58507842617 -0.760481367551 -2.47068688698 0 -2.90621728805 0 -2.9028166806 2.90621728805 -90 -0.760481367551 0.435530401073 0.876366785385 150.200217965 -119.799782035 218.352789772 -0.000111386479599 -0.000361834432098 0.000378591083511 -107.108372965 730.77019152
0.86985219464 0.016856417129 2.48129980189 -0.727462231468 -2.37226518915 0 -2.78910301911 0 -2.77766175792 2.78910301911 -90 -0.727462231468 0.41683782996 0.838424224716 150.187117394 -119.812882606 203.287193382 -8.72732958912e-05 -0.00028449366354 0.000297579143745 -107.048031225 627.358930155
0.87070525874 0.016297610299 2.38775372289 -0.696968773983 -2.28376825072 0 -2.68356019711 0 -2.67428584917 2.68356019711 -90 -0.696968773983 0.39979194639 0.803491868046 150.160639515 -119.839360485 180.689920739 -5.95757682487e-05 -0.00019512760591 0.000204019826459 -106.97106925 516.493446889
0.87141614558 0.015831937886 2.31040426159 -0.671321519574 -2.2107218251 0 -2.59630619997 0 -2.58877339707 2.59630619997 -90 -0.671321519574 0.38558437487 0.774175688253 150.128285694 -119.871714306 155.926829485 -3.98683976479e-05 -0.00013123176408 0.000137154218073 -106.89158473 417.249832974
0.87200855133 0.015443877501 2.24636695906 -0.649864606882 -2.15031090183 0 -2.52407861767 0 -2.51795072203 2.52407861767 -90 -0.649864606882 0.373767715841 0.749684202443 150.09469105 -119.90530895 132.615079598 -2.65358374673e-05 -8.77669008461e-05 9.16907040873e-05 -106.81573164 335.366736163
0.87250222284 0.015120493815 2.19329482534 -0.631976655248 -2.10027256451 0 -2.46422479759 0 -2.45923424851 2.46422479759 -90 -0.631976655248 0.363952233076 0.729284441798 150.062540804 -119.937459196 112.203441107 -1.77243227259e-05 -5.88820451476e-05 6.14918614155e-05 -106.746671512 270.413910338
0.8729136158 0.014851007388 2.14927123129 -0.617095488978 -2.05877577383 0 -2.41457973259 0 -2.41051298526 2.41457973259 -90 -0.617095488978 0.355803958761 0.712322513137 150.033186476 -119.966813524 94.5668482826 -1.1888269227e-05 -3.96490796325e-05 4.13930101062e-05 -106.685616341 218.795911421
0.87325644329 0.014626435348 2.12751532985 -0.609734580393 -2.03826987962 0 -2.39004677391 0 -2.370056653 2.39004677391 -90 -0.609734580393 0.351776894294 0.703934140438 150.018023178 -119.981976822 85.616006131 -9.36967718017e-06 -3.13215567358e-05 3.26929813699e-05 -106.654535911 193.777587822