TITLE = "Electromagnetic Field"
VARIABLES = X Y E ER EI EvR EvI EvR' EvI' Ev EvPhase EpR EpI Ep EpPhase EpToEvPhaseShift elConductivity Jr Ji J Jphase QJ
ZONE N=246, E=215, F=FEPOINT, ET=QUADRILATERAL
0.11458190213 0 4.17421861809 -3.67194035192 1.9851839017 0 -10.3802023604 0 -0 10.3802023604 -90 -3.67194035192 12.3653862621 12.8990667631 106.53895255 -163.46104745 3614.68997784 -0.241181075897 0.130391221909 0.274171811318 151.602738903 31491.3617582
0.10549644968 0 4.03894389478 -3.57687993391 1.87514022984 0 -9.95908990356 0 -0 9.95908990356 -90 -3.57687993391 11.8342301334 12.3631310407 106.829986744 -163.170013256 3605.1619145 -0.234334479914 0.122857715363 0.264610815456 152.360082338 29443.8170444
0.096410997233 0 3.75325446421 -3.36236948422 1.66739344502 0 -9.11679447857 0 -0 9.11679447857 -90 -3.36236948422 10.7841879236 11.296277022 107.326454436 -162.673545564 3585.15461288 -0.219065998352 0.108641789868 0.244536293392 153.644382159 25298.3637624
0.087325544786 0 3.44215555948 -3.10381260885 1.48815413542 0 -8.28449863069 0 -0 8.28449863069 -90 -3.10381260885 9.77265276611 10.2537148984 107.624569026 -162.375430974 3563.19202791 -0.200989791931 0.0963696713941 0.222900790278 154.394563905 21161.4755811
0.078240092339 0 3.11578433511 -2.81098317592 1.34401957147 0 -7.48104777911 0 -0 7.48104777911 -90 -2.81098317592 8.82506735058 9.26193883028 107.665150716 -162.334849284 3539.18068482 -0.180809647242 0.0864483042484 0.200414168676 154.436423692 17234.4279267
0.069154639893 0 2.78528899938 -2.4942722642 1.23904876577 0 -6.72166501959 0 -0 6.72166501959 -90 -2.4942722642 7.96071378536 8.34238923494 107.38494242 -162.61505758 3513.05833981 -0.159263251493 0.0791057011745 0.177840885018 153.541539224 13680.8139288
0.060069187446 0 2.46372819085 -2.16552169309 1.17346836719 0 -6.0169695657 0 -0 6.0169695657 -90 -2.16552169309 7.19043793289 7.50965229874 106.738658631 -163.261341369 3484.81900354 -0.137169957546 0.074312909154 0.15605068563 151.460266877 10624.8192285
0.050983734999 0 2.17591897808 -1.85076288934 1.1418661275 0 -5.39201599709 0 -0 5.39201599709 -90 -1.85076288934 6.53388212459 6.79125699651 105.787871233 -164.212128767 3455.57432116 -0.112990438651 0.0695159924594 0.132738060259 148.205139769 8216.55885347
0.042478112499 0 1.9440544986 -1.58266558399 1.12710411775 0 -4.86807611578 0 -0 4.86807611578 -90 -1.58266558399 5.99518023353 6.20079521902 104.766841346 -165.233158654 3427.21020332 -0.0859154059029 0.0607876329042 0.105301235377 144.444162489 6496.39064919
0.035390093749 0 1.76835356253 -1.38036944475 1.10470055457 0 -4.44233825574 0 -0 4.44233825574 -90 -1.38036944475 5.54703881031 5.71628068731 103.963558477 -166.036441523 3400.88670932 -0.061852920688 0.0493100659707 0.0791186812157 141.282497136 5327.67670696
0.029483411458 0 1.63885745692 -1.25303359942 1.0562870644 0 -4.11664745494 0 -0 4.11664745494 -90 -1.25303359942 5.17293451933 5.32253301818 103.61511391 -166.38488609 3378.3583377 -0.0463877437014 0.0390850956809 0.0606588131634 139.864554213 4543.08256479
0.024561176215 0 1.53400683513 -1.18288526869 0.97643703713 0 -3.86455398188 0 -0 3.86455398188 -90 -1.18288526869 4.84099101901 4.98343806246 103.736736873 -166.263263127 3359.34358728 -0.0362268943848 0.0299881831488 0.0470336255862 140.488268031 3957.04289836
0.020459313512 0 1.44246226482 -1.1507029454 0.868750909388 0 -3.66728134131 0 -0 3.66728134131 -90 -1.1507029454 4.5360322507 4.67979440392 104.24498206 -165.75501794 3343.28361894 -0.0291952020169 0.0221668982401 0.0366727651399 142.999123212 3481.69732516
0.017041094594 0 1.3610806487 -1.14004666944 0.741434710952 0 -3.51139844226 0 -0 3.51139844226 -90 -1.14004666944 4.25283315321 4.4031158389 105.019410819 -164.980589181 3328.46519763 -0.0239841258279 0.0157264909137 0.0287036863426 147.027321476 3085.81307573
0.014192578828 0 1.29072675773 -1.13906262508 0.603844808169 0 -3.38717687634 0 -0 3.38717687634 -90 -1.13906262508 3.9910216845 4.15053516184 105.943015157 -164.056984843 3309.40783838 -0.0198538779714 0.0106394419735 0.0225504712842 152.139371463 2758.85335344
0.01181881569 0 1.2559335457 -1.13991132879 0.527229773164 0 -3.32752506981 0 -0 3.32752506981 -90 -1.13991132879 3.85475484297 4.01976774664 106.473772874 -163.526227126 3296.34442371 -0.0178390215552 0.00825087272178 0.0196547091232 155.178598099 2599.77587103
0.01181881569 0.002 2.76620143371 -2.51394682584 1.15409084581 0 -7.31740247194 0 -6.55586250137 7.31740247194 -90 -2.51394682584 8.47149331775 8.83663658935 106.511370708 -163.488629292 3293.27445299 -0.04552463431 0.0208937079598 0.0500903590496 155.290432442 15719.5112051
0.01181881569 0.0044 5.73148641331 -5.23678680123 2.32894185929 0 -15.11228626 0 -14.4171761188 15.11228626 -90 -5.23678680123 17.4412281193 18.2104867347 106.677245391 -163.322754609 3283.07951049 -0.105841059188 0.0470197533303 0.115818753541 155.889610676 58123.1546945
0.01181881569 0.0070912347858 8.98886659906 -8.29635245793 3.45721872166 0 -23.5597556183 0 -23.2196192335 23.5597556183 -90 -8.29635245793 27.01697434 28.2623218415 107.027652658 -162.972347342 3263.85101029 -0.172853123857 0.0720418585991 0.187285911257 157.209951485 136579.847277
0.01181881569 0.0097824695716 12.5039359619 -11.7051870502 4.38982541774 0 -32.4689576634 0 -32.000209733 32.4689576634 -90 -11.7051870502 36.8587830811 38.6733308604 107.575964848 -162.424035152 3234.14072714 -0.241644927689 0.0906548000184 0.258145164126 159.272441921 257563.505781
0.01181881569 0.012473704357 16.1248430061 -15.3418252598 4.94615342755 0 -41.3475062692 0 -40.7505953764 41.3475062692 -90 -15.3418252598 46.2936596968 48.7707870893 108.294573398 -161.705426602 3194.6060089 -0.312832990931 0.100918277915 0.328818590032 161.960182021 420070.08813
0.01181881569 0.015164939143 19.8872606133 -19.2353931368 5.01298454404 0 -50.1869554462 0 -49.4624602049 50.1869554462 -90 -19.2353931368 55.1999399902 58.4574191725 109.173142828 -160.826857172 3145.07252035 -0.386123373029 0.100738076306 0.399236632843 165.222104455 626704.736706
0.01181881569 0.017856173929 23.8295231622 -23.3907645206 4.47496042945 0 -58.9788707671 0 -58.1275002596 58.9788707671 -90 -23.3907645206 63.4538311966 67.6308616889 110.199190182 -159.800809818 3085.3269936 -0.460591602416 0.0882923205698 0.46926470899 168.998953615 880733.642196
0.01181881569 0.020547408715 27.9916371875 -27.7851428496 3.21747702069 0 -67.7148242768 0 -66.7374205156 67.7148242768 -90 -27.7851428496 70.9323012975 76.1844002105 111.358021764 -158.641978236 3015.07340559 -0.534635667629 0.0621716459357 0.538639877258 173.225010875 1185848.40986
0.01181881569 0.0232386435 32.4137187879 -32.3659391997 1.13121711061 0 -76.3863955663 0 -75.2839366468 76.3863955663 -90 -32.3659391997 77.5176126769 84.0088101871 112.632633701 -157.367366299 2933.92425115 -0.605988212456 0.0215522499292 0.606896904833 -2.16988862579 1545689.93075
0.01181881569 0.025929878286 37.1340297736 -37.0504080394 -1.88196576962 0 -84.9851752207 0 -83.7587789436 84.9851752207 -90 -37.0504080394 83.1032094511 90.9952486146 114.003626191 -155.996373809 2842.99670971 -0.672196008855 -0.0336485914884 0.673689413216 -177.258049511 1964304.14616
0.01181881569 0.028621113072 42.1869171212 -41.727297137 -5.90350260929 0 -93.5027699423 0 -92.1536977439 93.5027699423 -90 -41.727297137 87.599267333 97.0379456843 115.449360956 -154.550639044 2742.88956684 -0.730389761145 -0.102682030114 0.738345274761 -172.110047162 2444385.76536
0.01181881569 0.031312347858 44.8004908572 -44.0482422013 -8.17534953526 0 -97.7402230972 0 -100.460470347 97.7402230972 -90 -44.0482422013 89.5648735619 99.8103913287 116.188081711 -153.811918289 2690.35965282 -0.757055802429 -0.140509484448 0.769984677257 -169.485550895 2699888.88122
0.014192578828 0.002 2.84263667652 -2.5126042995 1.32236674396 0 -7.44862991271 0 -6.75110377525 7.44862991271 -90 -2.5126042995 8.77099665667 9.12411460673 105.981634758 -164.018365242 3306.20448654 -0.0506754481349 0.0269533937022 0.0574622893052 152.25707696 16677.525797
0.014192578828 0.0044 5.8880023133 -5.23763944354 2.67473235327 0 -15.3833380632 0 -14.8465782873 15.3833380632 -90 -5.23763944354 18.0580704164 18.8030032377 106.151997606 -163.848002394 3295.57270548 -0.117890780278 0.0608032120329 0.132798576629 152.876324267 61611.719625
0.014192578828 0.0070912347858 9.22863627095 -8.30856751874 3.99073010291 0 -23.9823311009 0 -23.9112033807 23.9823311009 -90 -8.30856751874 27.9730612038 29.1821074944 106.511863434 -163.488136566 3275.53566202 -0.1927531192 0.0936349597227 0.214549595826 154.236317374 144553.638583
0.014192578828 0.0097824695716 12.8257722502 -11.7445895351 5.11272989285 0 -33.0513441707 0 -32.9533223717 33.0513441707 -90 -11.7445895351 38.1640740636 39.9322351745 107.074947729 -162.925052271 3244.59333633 -0.269914622423 0.118910129725 0.295319620114 156.361699706 271994.016
0.014192578828 0.012473704357 16.5212192713 -15.4287293878 5.84473906942 0 -42.0891609454 0 -41.9643320766 42.0891609454 -90 -15.4287293878 47.9339000148 50.3585338984 107.81286784 -162.18713216 3203.43049558 -0.350118575914 0.134363326711 0.375517551886 159.133637207 442369.728911
0.014192578828 0.015164939143 20.3500856037 -19.3935600518 6.06853872993 0 -51.0871818752 0 -50.9356611587 51.0871818752 -90 -19.3935600518 57.1557206051 60.3601239289 108.714964099 -161.285035901 3151.87951729 -0.433051797581 0.137524321039 0.455007312881 162.5007305 657851.368593
0.014192578828 0.017856173929 24.3511129477 -23.6457950546 5.66330094839 0 -60.0368155733 0 -59.858744999 60.0368155733 -90 -23.6457950546 65.7001165217 69.8306921784 109.768355108 -160.231644892 3089.76918725 -0.517647098893 0.126245958537 0.533611124661 166.402616164 921278.289166
0.014192578828 0.020547408715 28.5656936276 -28.1626364891 4.50874479431 0 -68.9294731309 0 -68.7250217062 68.9294731309 -90 -28.1626364891 73.4382179252 78.6593566754 110.957878455 -159.042121545 3016.90409026 -0.602040304835 0.0988734173689 0.611046880764 170.77147007 1235987.1466
0.014192578828 0.0232386435 33.0362009069 -32.8895359063 2.49009599257 0 -77.7565686208 0 -77.5259330064 77.7565686208 -90 -32.8895359063 80.2466646134 86.7327304407 112.265997612 -157.734002388 2933.08054108 -0.683605741071 0.0544475392637 0.686855971487 93.7157339589 1605412.3724
0.014192578828 0.025929878286 37.8038031043 -37.7398888621 -0.49549627056 0 -86.5095220217 0 -86.2529273647 86.5095220217 -90 -37.7398888621 86.0140257511 93.9381165204 113.672737047 -156.327262953 2839.84046576 -0.759575413438 -0.00710591015955 0.760824494423 -81.2047602215 2033801.34442
0.014192578828 0.028621113072 42.9061037655 -42.5969934779 -4.53300400809 0 -95.1797638765 0 -94.8974647179 95.1797638765 -90 -42.5969934779 90.6467598684 100.166426452 115.155919765 -154.844080235 2738.14933038 -0.826732742209 -0.0849246438668 0.832410994083 -174.065391362 2524362.73089
0.014192578828 0.031312347858 47.7788667225 -46.9785516595 -8.46960286971 0 -103.063843368 0 -103.451022807 103.063843368 -90 -46.9785516595 94.5942404983 105.625113428 116.393321058 -153.606678942 2641.84687003 -0.905683434643 -0.162296329682 0.920974747655 -169.890045143 3019203.87841
0.014192578828 0.034003582644 51.8736774517 -50.5859812841 -11.4863793204 0 -109.610139175 0 -111.905105128 109.610139175 -90 -50.5859812841 98.1237598542 110.395714366 117.272573748 -152.727426252 2562.68957175 -0.993794058362 -0.225657291426 1.01909167576 -167.20697262 3447943.0231
0.017041094594 0.002 2.99715576998 -2.51577819427 1.62444092189 0 -7.72190422775 0 -6.99411930584 7.72190422775 -90 -2.51577819427 9.34634514964 9.67929603735 105.059978389 -164.940021611 3324.96361926 -0.061234998087 0.0398541850583 0.0731213621153 147.156103045 18645.142901
0.017041094594 0.0044 6.20442971099 -5.25116689192 3.29459686664 0 -15.9477945117 0 -15.3810586154 15.9477945117 -90 -5.25116689192 19.2423913784 19.9466537282 105.238897167 -164.761102833 3313.3451948 -0.142604528475 0.0901196888051 0.168833812057 147.813671769 68767.8153513
0.017041094594 0.0070912347858 9.71354090792 -8.35054994474 4.94441642501 0 -24.8623460622 0 -24.7720459194 24.8623460622 -90 -8.35054994474 29.8067624873 30.9555204868 105.616781007 -164.383218993 3291.44330291 -0.233596107414 0.139479897449 0.272314435966 149.24978562 160874.069026
0.017041094594 0.0097824695716 13.4770475872 -11.8456224118 6.39909840126 0 -34.2641981843 0 -34.1397449706 34.2641981843 -90 -11.8456224118 40.6632965856 42.3553605759 106.207961856 -163.792038144 3257.58042599 -0.32797436273 0.178718645013 0.3738740163 151.496185956 301425.277926
0.017041094594 0.012473704357 17.3241079163 -15.6272965527 7.43340734873 0 -43.633753781 0 -43.4752515252 43.633753781 -90 -15.6272965527 51.0671611297 53.4074873547 106.982520687 -163.017479313 3212.43207969 -0.426703285271 0.204839832806 0.473834275195 154.43062596 487614.156073
0.017041094594 0.015164939143 21.2889260255 -19.7341407377 7.91838045634 0 -52.9621011958 0 -52.7696871344 52.9621011958 -90 -19.7341407377 60.8804816521 64.0028613688 107.929093704 -162.070906296 3155.7438114 -0.529348326762 0.214544969025 0.57184883078 158.001411282 720577.348305
0.017041094594 0.017856173929 25.4113999444 -24.17544114 7.72162318404 0 -62.2403293858 0 -62.0141728023 62.2403293858 -90 -24.17544114 69.9619525698 74.0263499682 109.033918424 -160.966081576 3087.29414576 -0.63441472064 0.204993895767 0.667566667055 162.146342586 1002067.45973
0.017041094594 0.020547408715 29.7361769789 -28.9270636741 6.71108655426 0 -71.4595208911 0 -71.1998236932 71.4595208911 -90 -28.9270636741 78.1706074453 83.3578845034 110.280769341 -159.719230659 3006.90025215 -0.739304567036 0.174055754593 0.760558491978 166.793663205 1334358.63024
0.017041094594 0.0232386435 34.310774835 -33.9290045801 4.761027122 0 -80.6107510432 0 -80.3177487756 80.6107510432 -90 -33.9290045801 85.3717781652 91.8750744951 111.650864192 -158.349135808 2914.58125635 -0.840436865014 0.120608667845 0.850269863948 171.863626264 1719983.98454
0.017041094594 0.025929878286 39.1829305344 -39.085310284 1.75963082313 0 -89.685089687 0 -89.3590527941 89.685089687 -90 -39.085310284 91.4447205101 99.4571269364 113.122845068 -156.877154932 2812.97191618 -0.93434335629 0.044823719235 0.936808018911 95.4528443185 2163241.89394
0.017041094594 0.028621113072 44.39758942 -44.2668347768 -2.38418501412 0 -98.673604758 0 -98.3148399693 98.673604758 -90 -44.2668347768 96.2894197438 105.988263025 114.673197247 -155.326802753 2702.98824675 -1.0166641096 -0.0518956236463 1.01952273427 -78.8876915834 2666797.233
0.017041094594 0.031312347858 49.9938320459 -49.316502356 -7.73283439801 0 -107.567367577 0 -107.176219443 107.567367577 -90 -49.316502356 99.8345331795 111.362778929 116.276200617 -153.723799383 2582.68600107 -1.08196872423 -0.166674153046 1.09637861507 -171.240485605 3228728.07468
0.017041094594 0.034003582644 55.4172946875 -53.7879753556 -13.0913280596 0 -115.827103831 0 -115.934312513 115.827103831 -90 -53.7879753556 102.735775771 115.974244977 117.618795844 -152.381204156 2457.04684043 -1.15493269419 -0.280273635151 1.18975489356 -166.462867333 3770291.53106
0.017041094594 0.036694817429 63.4268728046 -59.4866284412 -21.7509886806 0 -127.248500932 0 -124.580261835 127.248500932 -90 -59.4866284412 105.497512251 121.125421922 119.410018545 -150.589981455 2265.3726685 -1.23825366273 -0.450256990906 1.31941791516 -160.07687051 4553301.07034
0.017041094594 0.039386052215 66.8063238469 -61.5171716775 -26.0523030601 0 -131.634190621 0 -133.10524275 131.634190621 -90 -61.5171716775 105.581887561 122.196143115 120.227169899 -149.772830101 2188.87984498 -1.23871028493 -0.524589392954 1.34521269738 -157.047515409 4884578.29851
0.020459313512 0.002 3.17583466786 -2.54030081812 1.90364833525 0 -8.06483150563 0 -7.29873891286 8.06483150563 -90 -2.54030081812 9.96847984088 10.2872463646 104.287608009 -165.712391991 3339.43365182 -0.0745589032485 0.0561744671034 0.093392052025 143.139573169 21025.4436175
0.020459313512 0.0044 6.57040238894 -5.30927574198 3.86538869862 0 -16.6561344833 0 -16.051039533 16.6561344833 -90 -5.30927574198 20.5215231819 21.1976188114 104.475570029 -165.524429971 3326.65057734 -0.17380066979 0.127123741732 0.215428276815 143.838962524 77414.1430488
0.020459313512 0.0070912347858 10.2747828292 -8.46339880176 5.81594464423 0 -25.9667214666 0 -25.8511649935 25.9667214666 -90 -8.46339880176 31.7826661108 32.8910798868 104.872480067 -165.127519933 3302.49906662 -0.285180852143 0.197095840068 0.346850649739 145.359281846 180551.592146
0.020459313512 0.0097824695716 14.2318765765 -12.0468068387 7.56007370298 0 -35.7863511504 0 -35.627073998 35.7863511504 -90 -12.0468068387 43.3464248534 44.9908360247 105.493257745 -164.506742255 3265.00733396 -0.401323465929 0.253324218259 0.474895777339 147.74001937 336794.042413
0.020459313512 0.012473704357 18.2566847634 -15.9565860801 8.8415142876 0 -45.572380161 0 -45.3695038749 45.572380161 -90 -15.9565860801 54.4138944486 56.7077236437 106.306251288 -163.693748712 3214.72728976 -0.523382417211 0.29176086434 0.599676722549 150.855564709 541730.468808
0.020459313512 0.015164939143 22.3830540112 -20.2362120327 9.5170442086 0 -55.3155247091 0 -55.0692093448 55.3155247091 -90 -20.2362120327 64.8325689177 67.9210803337 107.299194089 -162.700805911 3151.13901564 -0.650595882905 0.307951617605 0.72046021485 154.65439678 795104.574553
0.020459313512 0.017856173929 26.6531743535 -24.8954265719 9.43930080029 0 -65.0064910271 0 -64.7169344152 65.0064910271 -90 -24.8954265719 74.4457918274 78.5033851952 108.457162529 -161.542837471 3073.72956886 -0.78064515318 0.298130958047 0.836527110441 159.072703647 1097132.73169
0.020459313512 0.020547408715 31.116722479 -29.9054849626 8.46148268659 0 -74.6359663953 0 -74.3034052133 74.6359663953 -90 -29.9054849626 83.0974490818 88.3218540797 109.762477701 -160.237522299 2982.00521433 -0.909592028362 0.259624809913 0.947057063926 164.034492218 1448412.72831
0.020459313512 0.0232386435 35.8287307539 -35.1964953615 6.44479054622 0 -84.1946164609 0 -83.8193278225 84.1946164609 -90 -35.1964953615 90.6394070071 97.2418990371 111.194575005 -158.805424995 2876.58249592 -1.03243812835 0.191391596316 1.0514174027 169.452517438 1850250.44684
0.020459313512 0.025929878286 40.846354198 -40.6578686829 3.2673511774 0 -93.6730851773 0 -93.2553885556 93.6730851773 -90 -40.6578686829 96.9404363547 105.131775521 112.730147548 -157.269852452 2760.02005416 -1.14397278705 0.0943101129079 1.14948115067 175.231433824 2305284.98788
0.020459313512 0.028621113072 46.2249719488 -46.1422714043 -1.16707714237 0 -103.061996741 0 -102.602256094 103.061996741 -90 -46.1422714043 101.894919598 111.867423353 114.343582279 -155.656417721 2632.0447371 -1.23746736532 -0.0288327640372 1.23963928275 1.27322900734 2812931.6309
0.020459313512 0.031312347858 52.0138846876 -51.472855573 -6.91840505095 0 -112.351959419 0 -111.850585549 112.351959419 -90 -51.472855573 105.433554368 117.340052442 116.006764601 -153.993235399 2491.01675226 -1.30561357948 -0.172881188159 1.31900635691 -172.52024615 3367737.54856
0.020459313512 0.034003582644 58.2517961622 -56.4542797041 -13.999762137 0 -121.533571445 0 -120.991024521 121.533571445 -90 -56.4542797041 107.533809308 121.465271453 117.688785477 -152.311214523 2337.62206216 -1.34269560357 -0.330131321658 1.38477956799 -166.245545142 3960059.50708
0.020459313512 0.036694817429 64.9626692965 -60.887120785 -22.371780416 0 -130.59742916 0 -130.01422138 130.59742916 -90 -60.887120785 108.225648744 124.190374048 119.356258151 -150.643741849 2173.64360984 -1.34532393718 -0.491153754286 1.43429679834 -159.993402378 4575071.55605
0.020459313512 0.039386052215 68.4383028775 -62.9417008143 -26.8721395328 0 -135.098744151 0 -138.910835986 135.098744151 -90 -62.9417008143 108.226604618 125.19849726 120.182040309 -149.817959691 2089.36547197 -1.3378150231 -0.571356384069 1.45472035079 -156.883824797 4886161.10811
0.024561176215 0.002 3.376795847 -2.61220744419 2.13929029058 0 -8.49881500879 0 -7.68374610658 8.49881500879 -90 -2.61220744419 10.6381052994 10.9541822332 103.781459398 -166.218540602 3355.16636157 -0.0925347945589 0.0759715669916 0.119739216171 140.641040479 23882.5242493
0.024561176215 0.0044 6.98228112263 -5.46545685146 4.34354853411 0 -17.5525803326 0 -16.8978434351 17.5525803326 -90 -5.46545685146 21.8961288667 22.5681073124 103.978639776 -166.021360224 3341.28057603 -0.215864632678 0.17184701454 0.275954742196 141.386887884 87794.1062085
0.024561176215 0.0070912347858 10.907467054 -8.7296006279 6.53495138542 0 -27.3644405475 0 -27.2151512666 27.3644405475 -90 -8.7296006279 33.8993919329 35.0058803662 104.394932161 -165.605067839 3314.96212838 -0.354654101834 0.266226883954 0.443573140719 143.002338171 204187.505303
0.024561176215 0.0097824695716 15.0852608556 -12.4597564536 8.49347568693 0 -37.71295676 0 -37.5071587452 37.71295676 -90 -12.4597564536 46.2064324469 47.8580499706 105.045789964 -164.954210036 3273.88480489 -0.499899266046 0.341710119508 0.605769239933 145.535088061 379324.454708
0.024561176215 0.012473704357 19.3157415376 -16.5548964819 9.93016828598 0 -48.0263534958 0 -47.7641827396 48.0263534958 -90 -16.5548964819 57.9565217818 60.2767681231 105.897675197 -164.102324803 3218.36624824 -0.652876123184 0.39271599297 0.762324334003 148.855770977 606928.792785
0.024561176215 0.015164939143 23.6337209094 -21.0611819999 10.6827962938 0 -58.2949099175 0 -57.9765456433 58.2949099175 -90 -21.0611819999 68.9777062113 72.1250195064 106.937221303 -163.062778697 3147.46317994 -0.812166261228 0.413162540075 0.91192252786 152.913161289 885162.404711
0.024561176215 0.017856173929 28.0857446312 -25.9852562256 10.5845391714 0 -68.5088800953 0 -68.1345446624 68.5088800953 -90 -25.9852562256 79.0934192668 83.2580036756 108.148054882 -161.851945118 3060.13649616 -0.974014230399 0.398032565095 1.05324333286 157.641637376 1212487.45507
0.024561176215 0.020547408715 32.7293630441 -31.2887236898 9.46999625213 0 -78.6584811724 0 -78.2284419023 78.6584811724 -90 -31.2887236898 88.1284774245 93.5253261915 109.510627978 -160.489372022 2955.25875885 -1.13221219602 0.344042219982 1.18475075912 162.960190654 1587492.9295
0.024561176215 0.0232386435 37.6306574073 -36.8853041789 7.18469055286 0 -88.7338878694 0 -88.2484595222 88.7338878694 -90 -36.8853041789 95.9185784222 102.775638869 111.00200883 -158.99799117 2834.1818203 -1.27954015373 0.250635857058 1.30567998342 168.772459091 2010174.91613
0.024561176215 0.025929878286 42.8602215142 -42.6422025612 3.59557175697 0 -98.7252297192 0 -98.1847774413 98.7252297192 -90 -42.6422025612 102.320801476 110.862155913 112.59626051 -157.40373949 2697.84472559 -1.40726180158 0.12017778179 1.41460102105 174.970879457 2479549.52781
0.024561176215 0.028621113072 48.4879819059 -48.385828814 -1.39682694374 0 -108.622590452 0 -108.027533064 108.622590452 -90 -48.385828814 107.225763508 117.650308471 114.264662256 -155.735337744 2543.80356188 -1.50434075412 -0.0416221098566 1.50747933025 1.44118202183 2988720.1384
0.024561176215 0.031312347858 54.5769795562 -53.9122609504 -7.84346067468 0 -118.416009468 0 -117.766823126 118.416009468 -90 -53.9122609504 110.572548793 123.029485723 115.975292528 -154.024707472 2370.58518681 -1.56022118164 -0.22465553463 1.57913121664 -171.935909603 3523905.84719
0.024561176215 0.034003582644 61.1765001535 -59.0036262681 -15.7339470574 0 -128.095485635 0 -127.392707793 128.095485635 -90 -59.0036262681 112.361538578 126.925798199 117.693174451 -152.306825549 2179.75727537 -1.56784676531 -0.414940620776 1.62477594711 -165.280962065 4064973.82688
0.024561176215 0.036694817429 68.3156184404 -63.4487554894 -24.9907818001 0 -137.650983641 0 -136.895217293 137.650983641 -90 -63.4487554894 112.660201841 129.31206392 119.381242456 -150.618757544 1973.9380392 -1.52391862358 -0.5958285033 1.63918873058 -158.709224891 4581548.42576
0.024561176215 0.039386052215 72.0222635736 -65.4844705034 -29.9468633161 0 -142.396481791 0 -146.264361361 142.396481791 -90 -65.4844705034 112.449618475 130.127448188 120.213100303 -149.786899697 1867.53610429 -1.488817205 -0.681705392932 1.63780869623 -155.457991926 4829003.65262
0.029483411458 0.002 3.60701094681 -2.76760169972 2.31316856626 0 -9.05340547678 0 -8.17502488098 9.05340547678 -90 -2.76760169972 11.366574043 11.6986641272 103.661858881 -166.338141119 3373.92088284 -0.118496741671 0.0989586308907 0.154384473374 140.030271616 27405.8317737
0.029483411458 0.0044 7.45491847116 -5.79385560404 4.69047973792 0 -18.6981954335 0 -17.9784188662 18.6981954335 -90 -5.79385560404 23.3886751714 24.0957087334 103.867941306 -166.132058694 3359.1484282 -0.276507800749 0.223476883397 0.355545608748 140.82731965 100618.390053
0.029483411458 0.0070912347858 11.6361826929 -9.26339911086 7.03821319787 0 -29.1507771139 0 -28.9557953194 29.1507771139 -90 -9.26339911086 36.1889903118 37.3562370303 104.302934879 -165.697065121 3331.04613284 -0.454482364152 0.345105487934 0.570773243571 142.549054721 233497.242855
0.029483411458 0.0097824695716 16.0742491508 -13.2388686181 9.10575306663 0 -40.1754746041 0 -39.9066445748 40.1754746041 -90 -13.2388686181 49.2812276707 51.0297149172 104.982720832 -165.017279168 3286.91567543 -0.640830877104 0.440468499814 0.77791125721 145.251462482 432385.182108
0.029483411458 0.012473704357 20.5540447617 -17.6132579152 10.5695614247 0 -51.163343777 0 -50.8208043174 51.163343777 -90 -17.6132579152 61.7329052017 64.1988545772 105.871776443 -164.128223557 3226.74922765 -0.836793125 0.501758143366 0.976308642201 148.800478201 689004.548581
0.029483411458 0.015164939143 25.1138486107 -22.4316650497 11.2423368438 0 -62.1041656913 0 -61.6881007398 62.1041656913 -90 -22.4316650497 73.3465025351 76.7041518962 106.955427051 -163.044572949 3149.05756174 -1.03974813707 0.520625775483 1.16386439629 153.144607173 999974.368637
0.029483411458 0.017856173929 29.8079359356 -27.6922214558 10.9323243788 0 -72.9876744404 0 -72.4983139277 72.9876744404 -90 -27.6922214558 83.9199988192 88.3772350721 108.215534686 -161.784465314 3052.07622318 -1.24355472077 0.49041423468 1.33838213192 158.215399782 1362069.27839
0.029483411458 0.020547408715 34.7059627668 -33.3396743917 9.45113339544 0 -83.803541031 0 -83.2411638474 83.803541031 -90 -33.3396743917 93.2546744264 99.0438575088 109.630218872 -160.369781128 2933.73236398 -1.43832487038 0.40727690569 1.49715223158 163.925169463 1771817.05114
0.029483411458 0.0232386435 39.8899479422 -39.2624965888 6.62604355424 0 -94.5413636123 0 -93.9063014396 94.5413636123 -90 -39.2624965888 101.167407166 108.530162073 111.173519332 -158.826480668 2795.51867751 -1.61308254218 0.271857197756 1.63880693796 170.165981574 2227571.25549
0.029483411458 0.025929878286 45.4490544578 -45.295672926 2.3130291541 0 -105.190660514 0 -104.483302358 105.190660514 -90 -45.295672926 107.503689668 116.669797032 112.81590933 -157.18409067 2636.12993016 -1.75324432153 0.0895981059837 1.7591864766 78.6327837835 2723059.42794
0.029483411458 0.028621113072 51.4724247796 -51.2293242173 -3.58619259175 0 -115.740865564 0 -114.961662866 115.740865564 -90 -51.2293242173 112.154672973 123.315846928 114.524223886 -155.475776114 2449.88326237 -1.84044103228 -0.127830415196 1.849094878 -94.4459300309 3240512.97223
0.029483411458 0.031312347858 58.0399630237 -56.8246919097 -11.1031029988 0 -126.181325692 0 -125.330798054 126.181325692 -90 -56.8246919097 115.078222693 128.359211914 116.261037896 -153.738962104 2234.48601733 -1.85872250743 -0.360526248668 1.89793903452 -169.21655688 3749901.44873
0.029483411458 0.034003582644 65.2117974274 -61.8394600039 -20.1859951532 0 -136.50130111 0 -135.580042593 136.50130111 -90 -61.8394600039 116.315305957 131.747738512 117.985511358 -152.014488642 1990.37530091 -1.79744496296 -0.581418928155 1.89377034564 -162.194483777 4204307.7181
0.029483411458 0.036694817429 73.0180512278 -66.05987212 -30.692197162 0 -146.689968421 0 -145.69865436 146.689968421 -90 -66.05987212 115.997771259 133.503604432 119.655483616 -150.344516384 1720.50307064 -1.65431361825 -0.759399961966 1.82462168567 -155.347097745 4537433.07659
0.029483411458 0.039386052215 77.0813723045 -67.9476354514 -36.2775329541 0 -151.750117041 0 -155.675821366 151.750117041 -90 -67.9476354514 115.472584087 133.981278375 120.471577653 -149.528422347 1579.62388903 -1.56260265739 -0.833660240038 1.77236315356 -151.985303525 4664132.72646
0.035390093749 0.002 3.89151305725 -3.04870073043 2.41720117263 0 -9.76991705309 0 -8.80871678926 9.76991705309 -90 -3.04870073043 12.1871182257 12.562818693 104.012116575 -165.987883425 3396.28889351 -0.157983728456 0.124731552817 0.201329261692 141.461337169 32127.0197184
0.035390093749 0.0044 8.04066710676 -6.38120691845 4.88838655759 0 -20.1783646469 0 -19.3722932183 20.1783646469 -90 -6.38120691845 25.0667512045 25.8666546548 104.226189404 -165.773810596 3380.95564577 -0.368516664512 0.280854107514 0.463465228601 142.311753261 117863.202604
0.035390093749 0.0070912347858 12.5445643304 -10.1985420254 7.29467025565 0 -31.4589907451 0 -31.2013160402 31.4589907451 -90 -10.1985420254 38.7536610008 40.0742005497 104.677941183 -165.322058817 3351.66732335 -0.605264205727 0.431176404205 0.743475115309 144.144896155 273171.11094
0.035390093749 0.0097824695716 17.3184865524 -14.5651354069 9.34718126784 0 -43.357856724 0 -43.0025094363 43.357856724 -90 -14.5651354069 52.7050379918 54.6827312346 105.383509582 -164.616490418 3305.37118967 -0.85227281934 0.544628273076 1.01212689051 147.024388286 504955.564569
0.035390093749 0.012473704357 22.131559252 -19.3560378128 10.6850107846 0 -55.2181059029 0 -54.7651965995 55.2181059029 -90 -19.3560378128 65.9031166875 68.6906356639 106.305354695 -163.694645305 3241.66740616 -1.11042300344 0.610184925364 1.2682923899 150.810101615 802895.478648