TITLE = "Electromagnetic Field"
VARIABLES = X Y E ER EI EvR EvI EvR' EvI' Ev EvPhase EpR EpI Ep EpPhase EpToEvPhaseShift elConductivity Jr Ji J Jphase QJ
ZONE N=265, E=230, F=FEPOINT, ET=QUADRILATERAL
0.87762477088 0.016950612752 2.37442651548 -0.647901557345 -2.28432152934 0 -2.66473499384 0 -2.6865326654 2.66473499384 -90 -0.647901557345 0.380413464503 0.751326049053 149.580801718 -120.419198282 3.76372569811e-89 -9.72704353291e-99 -3.42948627105e-98 3.56476224203e-98 -105.834914377 1.06097569606e-88
0.87735948764 0.01665188324 2.35479730109 -0.643546359761 -2.26515282306 0 -2.64279076275 0 -2.64278729367 2.64279076275 -90 -0.643546359761 0.377637939698 0.746165106793 149.595363031 -120.404636969 3.83232641646e-89 -9.83981448911e-99 -3.46330843585e-98 3.60037878363e-98 -105.860445771 1.06228287201e-88
0.8770950643 0.016352392653 2.31533163402 -0.634747052288 -2.22662428023 0 -2.5986664048 0 -2.59878587361 2.5986664048 -90 -0.634747052288 0.372042124574 0.735743975475 149.624402236 -120.375597764 4.22904660118e-89 -1.07097349214e-98 -3.75636499877e-98 3.90605494779e-98 -105.911558477 1.13212067194e-88
0.87683489601 0.016049198173 2.27517396947 -0.625684964545 -2.18744917621 0 -2.55375818098 0 -2.55401774592 2.55375818098 -90 -0.625684964545 0.366309004766 0.725026892192 149.653148908 -120.346851092 4.73770082313e-89 -1.18295886263e-98 -4.13546340324e-98 4.30133152243e-98 -105.962560166 1.2254789722e-88
0.87658307732 0.015739034062 2.23461001591 -0.616414874225 -2.14790913859 0 -2.50838497291 0 -2.50791254228 2.50838497291 -90 -0.616414874225 0.36047583433 0.71407993575 149.681260801 -120.318739199 5.19806751159e-89 -1.266242792e-98 -4.41191792768e-98 4.59003209697e-98 -106.012844883 1.29664170785e-88
0.87633604127 0.015434760709 2.19327792378 -0.606861412143 -2.10764949043 0 -2.46214276435 0 -2.46256234144 2.46214276435 -90 -0.606861412143 0.354493273923 0.702813121012 149.709112999 -120.290887001 5.80903015543e-89 -1.38488665647e-98 -4.80929530983e-98 5.00472148246e-98 -106.063078561 1.39585996313e-88
0.87609686244 0.015121208131 2.15154572375 -0.597096435594 -2.06703265376 0 -2.41544243008 0 -2.41551847533 2.41544243008 -90 -0.597096435594 0.348409776323 0.6913129191 149.736266036 -120.263733964 6.23242000175e-89 -1.46648677601e-98 -5.07656316259e-98 5.28413495031e-98 -106.112475112 1.44222744062e-88
0.87586113281 0.014805055514 2.10905566442 -0.587047219595 -2.02570741582 0 -2.36788462832 0 -2.36789857906 2.36788462832 -90 -0.587047219595 0.342177212507 0.679492242746 149.763127063 -120.236872937 6.86866429233e-89 -1.58826414552e-98 -5.47988879518e-98 5.70541586561e-98 -106.161764912 1.52537014198e-88
0.87562700315 0.014487715667 2.06595224355 -0.57674544149 -1.98381516232 0 -2.31963104306 0 -2.31995050478 2.31963104306 -90 -0.57674544149 0.335815880742 0.667388667316 149.789582919 -120.210417081 7.70121275236e-89 -1.74968202705e-98 -6.01796834635e-98 6.26716341705e-98 -106.210745698 1.64235264283e-88
0.87540447382 0.014162137047 2.02204320173 -0.566127856306 -1.94117419066 0 -2.27046527605 0 -2.27043264662 2.27046527605 -90 -0.566127856306 0.329291085387 0.654930065012 149.815487102 -120.184512898 8.1553090384e-89 -1.81887675937e-98 -6.23648645112e-98 6.49631305957e-98 -106.259163886 1.66670509023e-88
0.87518194382 0.013836557443 1.97754267113 -0.555259362005 -1.89798877063 0 -2.22062822716 0 -2.22079695098 2.22062822716 -90 -0.555259362005 0.322639456531 0.642190935825 149.840933778 -120.159066222 8.85004363209e-89 -1.93520885737e-98 -6.6143136546e-98 6.89160262394e-98 -106.307184359 1.72833024088e-88
0.87496640221 0.01350631233 1.93240522732 -0.544123799136 -1.85421644413 0 -2.17006880311 0 -2.17021923802 2.17006880311 -90 -0.544123799136 0.315852358972 0.629152954136 149.865870343 -120.134129657 9.57720966221e-89 -2.05276861549e-98 -6.9950297165e-98 7.29001431549e-98 -106.354717343 1.7875657103e-88
0.87475739605 0.01317188962 1.88665988469 -0.532728199718 -1.80988551838 0 -2.11881963429 0 -2.11878510782 2.11881963429 -90 -0.532728199718 0.308934115914 0.615824357825 149.890281437 -120.109718563 1.04692796414e-88 -2.19562285565e-98 -7.45863249836e-98 7.77508640241e-98 -106.401740056 1.86049748045e-88
0.87454839065 0.012837468113 1.84034879972 -0.521084083351 -1.76503669493 0 -2.06692817984 0 -2.06723651315 2.06692817984 -90 -0.521084083351 0.30189148492 0.602218486835 149.91415986 -120.08584014 1.16489105588e-88 -2.38995344968e-98 -8.09485340552e-98 8.44029268885e-98 -106.448243851 1.97093949865e-88
0.87435219163 0.012495375218 1.79331145797 -0.509135861808 -1.71951916515 0 -2.01421364945 0 -2.0142093425 2.01421364945 -90 -0.509135861808 0.294694484301 0.58827219765 149.93731785 -120.06268215 1.21526102848e-88 -2.43712961593e-98 -8.23096242307e-98 8.58419213651e-98 -106.493898657 1.95435175728e-88
0.87415699594 0.012152709537 1.76960782573 -0.503084272963 -1.69659013058 0 -1.98764678797 0 -1.96096911488 1.98764678797 -90 -0.503084272963 0.291056657394 0.581212322234 149.948706693 -120.051293307 1.21781877921e-88 -2.41335425192e-98 -8.13874180815e-98 8.48901625425e-98 -106.516496374 1.90680697331e-88
0.87413427016 0.012165192752 1.77138246713 -0.503688897736 -1.69826185824 0 -1.98964809239 0 -1.96320372581 1.98964809239 -90 -0.503688897736 0.291386234144 0.581900715888 149.95043047 -120.04956953 3.25465459166e-25 -3.33566793297e-34 -1.12466993968e-33 1.17309389173e-33 -106.519873828 5.1062208271e-25
0.87413878734 0.012162711477 1.77121571374 -0.503632075712 -1.69810477792 0 -1.98946004043 0 -1.96275951607 1.98946004043 -90 -0.503632075712 0.291355262513 0.58183602216 149.950268482 -120.049731518 1.77567804844e-25 -1.81983885586e-34 -6.13585676701e-34 6.40004310349e-34 -106.519556422 2.78585745483e-25
0.87414255166 0.012160643747 1.77087660425 -0.503516525997 -1.69778533845 0 -1.98907761833 0 -1.96238935573 1.98907761833 -90 -0.503516525997 0.291292279882 0.581704464719 149.949939069 -120.050060931 2.70175738029e-29 -2.30638457607e-38 -7.77666555032e-38 8.11146946578e-38 -106.518910965 4.2370257188e-29
0.87414568859 0.012158920639 1.77059402293 -0.503420244532 -1.6975191461 0 -1.98875894464 0 -1.962080899 1.98875894464 -90 -0.503420244532 0.291239798535 0.581594844249 149.949664578 -120.050335422 1.30602006758e-33 -9.287135512e-43 -3.13155223273e-42 3.26636315288e-42 -106.518373137 2.04745631931e-33
0.8741483027 0.012157484715 1.77035854574 -0.503340017011 -1.69729732448 0 -1.98849339153 0 -1.96182385866 1.98849339153 -90 -0.503340017011 0.291196067044 0.58150350144 149.94943585 -120.05056415 1.58961973517e-38 -9.41672558205e-48 -3.17534761203e-47 3.31203557712e-47 -106.517924983 2.49134031891e-38
0.87415048112 0.012156288112 1.77016231957 -0.503273165559 -1.69711247666 0 -1.98827210282 0 -1.96160966337 1.98827210282 -90 -0.503273165559 0.291159626156 0.581427387621 149.949245254 -120.050754746 3.86537432328e-44 -1.90763889231e-53 -6.43278097376e-53 6.70967638562e-53 -106.517551547 6.056576434e-44
0.87415229647 0.012155290943 1.76999880126 -0.503217459408 -1.69695843938 0 -1.98808769956 0 -1.96143117072 1.98808769956 -90 -0.503217459408 0.29112926018 0.581363963096 149.94908643 -120.05091357 1.42565885015e-50 -5.86189856485e-60 -1.97674322189e-59 2.06182742079e-59 -106.517240368 2.23338938054e-50
0.87415380927 0.012154459969 1.76986253828 -0.503171039924 -1.69683007664 0 -1.9879340328 0 -1.96128242915 1.9879340328 -90 -0.503171039924 0.291103956168 0.581311111811 149.948954082 -120.051045918 5.44568560597e-58 -1.86556194966e-67 -6.29114125461e-67 6.56191890177e-67 -106.516981064 8.52960751651e-58
0.87415506993 0.012153767491 1.7697489876 -0.503132358699 -1.69672310904 0 -1.98780597924 0 -1.96115847961 1.98780597924 -90 -0.503132358699 0.291082870203 0.581267070886 149.948843795 -120.051156205 1.05854474742e-66 -3.02145301816e-76 -1.01892474265e-75 1.06277909962e-75 -106.516764987 1.65777432772e-66
0.87415612048 0.012153190425 1.76965436291 -0.503100125379 -1.69663396995 0 -1.98769926894 0 -1.9610551893 1.98769926894 -90 -0.503100125379 0.29106529899 0.581230371223 149.948751891 -120.051248109 1.37349123031e-76 -3.26657035155e-86 -1.10159941477e-85 1.14901091781e-85 -106.516584927 2.15075940617e-76
0.87432971004 0.012508298398 1.79511401048 -0.509747700903 -1.72121790858 0 -2.01624633225 0 -2.01651612597 2.01624633225 -90 -0.509747700903 0.295028423667 0.588969017102 149.939018951 -120.060981049 3.2850824198e-25 -3.4076315727e-34 -1.15063885104e-33 1.20003729929e-33 -106.497230729 5.29520258169e-25
0.87433417868 0.012505729671 1.79494462594 -0.509690198932 -1.72105828148 0 -2.01605532236 0 -2.0160575697 2.01605532236 -90 -0.509690198932 0.294997040876 0.588903529253 149.938859097 -120.061140903 1.79227957276e-25 -1.85910068067e-34 -6.27753745065e-34 6.54704043646e-34 -106.496917601 2.88896342555e-25
0.87433790255 0.012503589065 1.79460017909 -0.509573269819 -1.7207336758 0 -2.01566689992 0 -2.01567545433 2.01566689992 -90 -0.509573269819 0.294933224118 0.588770360786 149.938534017 -120.061465983 2.73048448016e-29 -2.35917321017e-38 -7.96647497163e-38 8.30845548077e-38 -106.496280827 4.39956871146e-29
0.87434100577 0.012501805227 1.79431314734 -0.509475838126 -1.72046317576 0 -2.01534322298 0 -2.01535703533 2.01534322298 -90 -0.509475838126 0.294880047217 0.588659396937 149.938263139 -120.061736861 1.31969269924e-33 -9.49815049096e-43 -3.20746031368e-42 3.34513856745e-42 -106.495750233 2.1256465414e-33
0.87434359179 0.012500318695 1.79407395766 -0.509394651041 -1.72023776076 0 -2.01507349623 0 -2.01509169325 2.01507349623 -90 -0.509394651041 0.294835735472 0.588566933433 149.938037424 -120.061962576 1.60521833915e-38 -9.62434763816e-48 -3.25017282892e-47 3.38967636838e-47 -106.49530811 2.58475679408e-38
0.87434574681 0.012499079918 1.79387466109 -0.509327005876 -1.72004994103 0 -2.01484875562 0 -2.01487057976 2.01484875562 -90 -0.509327005876 0.294798814596 0.588489892608 149.937849328 -120.062150672 3.89893583676e-44 -1.94749305923e-53 -6.57690350117e-53 6.85918334829e-53 -106.494939675 6.27645649156e-44
0.87434754266 0.012498047604 1.79370855653 -0.509270631233 -1.71989340049 0 -2.01466144487 0 -2.01468632201 2.01466144487 -90 -0.509270631233 0.294768044381 0.588425687336 149.937692601 -120.062307399 1.43588137782e-50 -5.97529201639e-60 -2.01796204978e-59 2.10456947393e-59 -106.494632688 2.31090923944e-50
0.87434903919 0.012497187343 1.79357013363 -0.509223653439 -1.71976294714 0 -2.01450534991 0 -2.01453277653 2.01450534991 -90 -0.509223653439 0.294742402762 0.588372183989 149.937562003 -120.062437997 5.46792055103e-58 -1.89574804752e-67 -6.40236248877e-67 6.67713359427e-67 -106.494376882 8.79789860904e-58
0.87435028631 0.012496470458 1.79345480043 -0.509184511403 -1.71965425423 0 -2.01437529235 0 -2.01440482337 2.01437529235 -90 -0.509184511403 0.294721038128 0.588327604866 149.937453166 -120.062546834 1.05954677603e-66 -3.06064146245e-76 -1.03365725455e-75 1.07801797866e-75 -106.494163702 1.70443574872e-66
0.87435132557 0.012495873054 1.79335869979 -0.509151896474 -1.71956368656 0 -2.01426692269 0 -2.01429819699 2.01426692269 -90 -0.509151896474 0.294703236134 0.588290459505 149.937362466 -120.062637534 1.37128736068e-76 -3.30040200801e-86 -1.11464016018e-85 1.16247556149e-85 -106.493986048 2.20551140306e-76
0.87452616711 0.012850823316 1.84220694681 -0.521710102608 -1.76678930609 0 -2.06902334315 0 -2.06961372466 2.06902334315 -90 -0.521710102608 0.302234037062 0.602931886463 149.915815637 -120.084184363 3.02063504595e-25 -3.20303647603e-34 -1.08456214062e-33 1.13087119953e-33 -106.451484017 5.11374028211e-25
0.87453058446 0.012848168716 1.84203234746 -0.521651270692 -1.76662462608 0 -2.06882647255 0 -2.06914116874 2.06882647255 -90 -0.521651270692 0.302201846472 0.602864843569 149.915660036 -120.084339964 1.64800185732e-25 -1.7474797547e-34 -5.91704279472e-34 6.16969100288e-34 -106.451179523 2.78996063422e-25
0.87453426558 0.01284595655 1.84167729095 -0.521531635657 -1.76628974019 0 -2.06842612636 0 -2.06874738749 2.06842612636 -90 -0.521531635657 0.302136386176 0.602728511198 149.915343608 -120.084656392 2.49948365361e-29 -2.20744415663e-38 -7.47475453817e-38 7.7938934362e-38 -106.450560308 4.2290237758e-29
0.87453733319 0.012844113077 1.84138142481 -0.521431950715 -1.7660106801 0 -2.06809252077 0 -2.06841924663 2.06809252077 -90 -0.521431950715 0.302081840669 0.602614912726 149.915079938 -120.084920062 1.199533619e-33 -8.82391813423e-43 -2.98799133653e-42 3.11555919535e-42 -106.450044336 2.02846149462e-33
0.87453988952 0.012842576851 1.84113486742 -0.521348884388 -1.76577812623 0 -2.06781451372 0 -2.06814580361 2.06781451372 -90 -0.521348884388 0.302036387493 0.602520251909 149.914860233 -120.085139767 1.44936848315e-38 -8.88113163793e-48 -3.00742516701e-47 3.13581770903e-47 -106.449614399 2.44981405861e-38
0.8745420198 0.012841296662 1.84092941148 -0.521279668124 -1.76558433849 0 -2.06758285087 0 -2.06791793935 2.06758285087 -90 -0.521279668124 0.30199851238 0.602441374083 149.914677154 -120.085322846 3.5013012188e-44 -1.78728396857e-53 -6.05240215079e-53 6.31078142212e-53 -106.449256135 5.91596028722e-44
0.87454379504 0.012840229837 1.84075823207 -0.521221998904 -1.76542288071 0 -2.06738983652 0 -2.0677280558 2.06738983652 -90 -0.521221998904 0.301966955807 0.602375655102 149.914524581 -120.085475419 1.2857463881e-50 -5.46802418215e-60 -1.8517086775e-59 1.93075594198e-59 -106.448957567 2.17193300563e-50
0.8745452744 0.012839340817 1.84061555396 -0.521173935678 -1.76528830435 0 -2.06722895924 0 -2.06756982214 2.06722895924 -90 -0.521173935678 0.30194065489 0.6023208826 149.914397457 -120.085602543 4.8892080455e-58 -1.73243238112e-67 -5.86688018396e-67 6.11732057665e-67 -106.4487088 8.25803569374e-58
0.8745465072 0.012838599967 1.84049665708 -0.521133884566 -1.7651761585 0 -2.06709489661 0 -2.06743796248 2.06709489661 -90 -0.521133884566 0.30191873811 0.602275240542 149.914291524 -120.085708476 9.53003389352e-67 -2.81391485683e-76 -9.5295993152e-76 9.93636733226e-76 -106.448501502 1.60984152268e-66
0.87454753453 0.012837982592 1.8403975836 -0.521100511272 -1.76508271038 0 -2.06698318589 0 -2.06732808064 2.06698318589 -90 -0.521100511272 0.301900475511 0.602237208466 149.914203246 -120.085796754 1.25777354843e-76 -3.09527888836e-86 -1.04829715371e-85 1.09303917076e-85 -106.448328753 2.12573605212e-76
0.87473542892 0.013185677858 1.88857262289 -0.533367763164 -1.81169113853 0 -2.12097610901 0 -2.12123232932 2.12097610901 -90 -0.533367763164 0.309284970481 0.616553631724 149.891892232 -120.108107768 2.33534904645e-25 -2.53023090699e-34 -8.59226178863e-34 8.95706672155e-34 -106.404886508 4.14840685415e-25
0.87473979531 0.013182937185 1.8883928953 -0.53330765895 -1.81152147888 0 -2.12077347884 0 -2.12074585703 2.12077347884 -90 -0.53330765895 0.309251999958 0.616485097639 149.891740858 -120.108259142 1.27412036848e-25 -1.38041538001e-34 -4.68767112145e-34 4.88669735951e-34 -106.40459082 2.26328874781e-25
0.87474343396 0.01318065329 1.88802739582 -0.533185432976 -1.81117645265 0 -2.12036140409 0 -2.1203404788 2.12036140409 -90 -0.533185432976 0.309184951432 0.616345728587 149.891433034 -120.108566966 1.90115780055e-29 -1.71546430928e-38 -5.82559199245e-38 6.07291905798e-38 -106.403989526 3.37481349909e-29
0.87474646617 0.013178750044 1.88772283034 -0.533083589678 -1.81088894536 0 -2.12001802824 0 -2.1200026743 2.12001802824 -90 -0.533083589678 0.309129082881 0.616229600447 149.891176531 -120.108823469 8.9517391072e-34 -6.72759601518e-43 -2.28467961517e-42 2.38167322433e-42 -106.403488484 1.58801918503e-33
0.87474899301 0.013177164006 1.88746904429 -0.532998729931 -1.81064937229 0 -2.11973190262 0 -2.11972117804 2.11973190262 -90 -0.532998729931 0.309082530334 0.616132837666 149.890962786 -120.109037214 1.06398620777e-38 -6.66058488529e-48 -2.26195242975e-47 2.35797871158e-47 -106.403070966 1.88645155591e-38
0.87475109871 0.013175842308 1.88725753507 -0.532928011792 -1.81044970675 0 -2.11949344138 0 -2.11948660304 2.11949344138 -90 -0.532928011792 0.30904373463 0.616052199607 149.89078469 -120.10921531 2.54076254209e-44 -1.32496593062e-53 -4.49967941697e-53 4.69069857493e-53 -106.402723082 4.50288802334e-44
0.87475285346 0.013174740892 1.88708128777 -0.532869085024 -1.81028332809 0 -2.11929473539 0 -2.1192911273 2.11929473539 -90 -0.532869085024 0.3090114073 0.615985006781 149.890636279 -120.109363721 9.30043691506e-51 -4.04067702304e-60 -1.37226718509e-59 1.43052027771e-59 -106.402433184 1.64787634975e-50
0.87475431576 0.013173823046 1.88693443818 -0.532819986894 -1.8101447011 0 -2.11912917308 0 -2.11912823336 2.11912917308 -90 -0.532819986894 0.308984471975 0.615929021326 149.890512598 -120.109487402 3.55755353828e-58 -1.28783353032e-67 -4.37375714929e-67 4.55941554989e-67 -106.402191592 6.30302417307e-58
0.87475553433 0.013173058174 1.88681204719 -0.532779068847 -1.81002916242 0 -2.11899118622 0 -2.11899249023 2.11899118622 -90 -0.532779068847 0.308962023797 0.615882363198 149.890409543 -120.109590457 7.12130420824e-67 -2.14832844851e-76 -7.29648521154e-76 7.6061830744e-76 -106.40199029 1.26208700017e-66
0.87475654982 0.013172420781 1.88671005367 -0.532744971062 -1.80993287893 0 -2.11887619605 0 -2.11887937205 2.11887619605 -90 -0.532744971062 0.308943317125 0.615843482007 149.890323667 -120.109676333 1.00055060665e-76 -2.51615879662e-86 -8.54640418866e-86 8.90910167777e-86 -106.401822546 1.77483368404e-76
0.87493953136 0.013523914305 1.95765818311 -0.550593742422 -1.87863569984 0 -2.19837538983 0 -2.17333455126 2.19837538983 -90 -0.550593742422 0.31973968999 0.636700038126 149.855494004 -120.144505996 5.11136367859e-22 -6.87535347549e-31 -2.34588290656e-30 2.44455956471e-30 -106.334895319 9.79446040903e-22
0.87494470632 0.013520524402 1.94310567884 -0.546958275789 -1.86453634624 0 -2.18207101187 0 -2.17273452221 2.18207101187 -90 -0.546958275789 0.317534665629 0.632448918762 149.862956549 -120.137043451 1.91830685558e-22 -2.58005797396e-31 -8.80319725018e-31 9.17349339068e-31 -106.34919029 3.6758293884e-22
0.87494901879 0.013517699483 1.9341867271 -0.54471500118 -1.85589957356 0 -2.1720770916 0 -2.17223452052 2.1720770916 -90 -0.54471500118 0.316177518042 0.629827495251 149.867288376 -120.132711624 1.02664173569e-25 -1.13785859757e-34 -3.87652998537e-34 4.04007545578e-34 -106.357483055 1.91948654758e-25
0.87495261251 0.013515345384 1.93381099814 -0.544590298132 -1.85554459629 0 -2.17165353115 0 -2.17181786813 2.17165353115 -90 -0.544590298132 0.316108934857 0.629685214883 149.866989283 -120.133010717 1.50944144195e-29 -1.39345985583e-38 -4.74751073583e-38 4.94778664776e-38 -106.35689971 2.82087216291e-29
0.87495560728 0.013513383635 1.93349789896 -0.544486388206 -1.85524878766 0 -2.17130057365 0 -2.17147066867 2.17130057365 -90 -0.544486388206 0.316051785989 0.629566657849 149.86674006 -120.13325994 6.97564187129e-34 -5.36405371898e-43 -1.82758237838e-42 1.90467548102e-42 -106.356413631 1.30305262894e-33
0.87495810292 0.013511748844 1.93323699778 -0.544399805258 -1.85500229323 0 -2.17100645914 0 -2.17118134331 2.17100645914 -90 -0.544399805258 0.316004165913 0.629467869816 149.866532384 -120.133467616 8.15389707512e-39 -5.22314398667e-48 -1.77961352157e-47 1.85467981067e-47 -106.356008583 1.5225740646e-38
0.87496018263 0.013510386519 1.93301957597 -0.544327655269 -1.85479687607 0 -2.17076135919 0 -2.17094024411 2.17076135919 -90 -0.544327655269 0.315964483117 0.629385548898 149.866359336 -120.133640664 1.92328335403e-44 -1.02634643051e-53 -3.4970007654e-53 3.64450320316e-53 -106.355671072 3.59018501953e-44
0.87496191571 0.013509251247 1.93283838538 -0.544267531235 -1.85462568879 0 -2.17055710288 0 -2.17073933167 2.17055710288 -90 -0.544267531235 0.31593141409 0.629316948949 149.866215141 -120.133784859 7.01039261078e-51 -3.11673751508e-60 -1.06196223152e-59 1.10675404488e-59 -106.355389835 1.30829420675e-50
0.87496335995 0.013508305187 1.9326874158 -0.544217435186 -1.85448305406 0 -2.17038691464 0 -2.17057190709 2.17038691464 -90 -0.544217435186 0.315903860575 0.629259790664 149.866094972 -120.133905028 2.69180723392e-58 -9.97076207221e-68 -3.39737030961e-67 3.54066209971e-67 -106.35515546 5.022403207e-58
0.87496456348 0.013507516804 1.93256160073 -0.544175687853 -1.85436418455 0 -2.17024508319 0 -2.17043238845 2.17024508319 -90 -0.544175687853 0.315880898638 0.629212157883 149.86599484 -120.13400516 5.51936156888e-67 -1.70344228299e-76 -5.80428696878e-76 6.04908827976e-76 -106.354960161 1.02969963675e-66
0.87496556642 0.013506859819 1.93245675865 -0.54414090018 -1.85426513007 0 -2.17012689463 0 -2.17031612429 2.17012689463 -90 -0.54414090018 0.315861764558 0.629172465866 149.865911397 -120.134088603 8.21523832135e-77 -2.11279929179e-86 -7.19929845995e-86 7.50292134353e-86 -106.354797415 1.53276877228e-76
0.87514192938 0.013863893044 2.00380173753 -0.562023443957 -1.92336971271 0 -2.25006626962 0 -2.22562143164 2.25006626962 -90 -0.562023443957 0.326696556906 0.650077681398 149.831147621 -120.168852379 6.1046856013e-11 -1.20812483475e-19 -4.13447293224e-19 4.30736950397e-19 -106.288769271 1.22558321435e-10
0.87514928603 0.013858867394 2.00346969397 -0.561914450295 -1.92305563229 0 -2.24969202002 0 -2.22473431371 2.24969202002 -90 -0.561914450295 0.326636387734 0.649953213125 149.830904647 -120.169095353 3.3304349071e-11 -6.59097188629e-20 -2.25557774141e-19 2.3499021366e-19 -106.288296566 6.68621676066e-11
0.87515541658 0.013854679352 1.98869299809 -0.558225241022 -1.90873880886 0 -2.23313640199 0 -2.22399509587 2.23313640199 -90 -0.558225241022 0.324397593129 0.645638625841 149.838247055 -120.161752945 1.83932311689e-19 -3.0300479621e-28 -1.0370177866e-27 1.08037854329e-27 -106.30219387 3.68980726174e-19
0.87516052537 0.013851189317 1.97983476996 -0.556014306072 -1.90015607762 0 -2.22321182151 0 -2.22337911382 2.22321182151 -90 -0.556014306072 0.323055743885 0.643052830184 149.842658204 -120.157341796 2.43702246252e-22 -3.30617772141e-31 -1.12959424195e-30 1.17698407032e-30 -106.310542896 4.76234341691e-22
0.87516478269 0.013848280955 1.97937183013 -0.555861804781 -1.89971834976 0 -2.22269000704 0 -2.22286581835 2.22269000704 -90 -0.555861804781 0.322971657278 0.642878726965 149.842309865 -120.157690135 8.58298256736e-26 -9.69697534465e-35 -3.31318352956e-34 3.45217329474e-34 -106.309864477 1.67597252229e-25
0.87516833046 0.013845857319 1.97898606726 -0.555734735644 -1.89935359303 0 -2.22225518478 0 -2.22243808777 2.22225518478 -90 -0.555734735644 0.322901591748 0.642733657509 149.842019609 -120.157980391 1.24876156659e-29 -1.17503242139e-38 -4.01485026873e-38 4.18326748692e-38 -106.309299174 2.4368234851e-29
0.87517128693 0.013843837623 1.97866459986 -0.555628852212 -1.89904962846 0 -2.221892835 0 -2.22208165674 2.221892835 -90 -0.555628852212 0.322843206539 0.64261277418 149.841777753 -120.158222247 5.69402301611e-34 -4.46259430182e-43 -1.52480259437e-42 1.58876394124e-42 -106.308828133 1.11045164285e-33
0.87517375066 0.013842154543 1.97839671174 -0.555540621307 -1.89879632445 0 -2.22159087858 0 -2.22178463846 2.22159087858 -90 -0.555540621307 0.322794554135 0.642512043627 149.841576225 -120.158423775 6.57719283529e-39 -4.29380520349e-48 -1.46714857153e-47 1.52868994858e-47 -106.308435629 1.28203559202e-38
0.87517580377 0.013840751977 1.97817349042 -0.555467103599 -1.89858525489 0 -2.22133926937 0 -2.22153712862 2.22133926937 -90 -0.555467103599 0.322754014481 0.64242811048 149.841408287 -120.158591713 1.53781757144e-44 -8.36330276728e-54 -2.85769104937e-53 2.9775573825e-53 -106.308108545 2.99637338622e-44
0.87517751469 0.013839583171 1.97798748128 -0.555405843329 -1.89840937123 0 -2.22112960479 0 -2.22133087399 2.22112960479 -90 -0.555405843329 0.322720233558 0.642358171141 149.841268342 -120.158731658 5.58748051471e-51 -2.53163960671e-60 -8.6506138429e-60 9.01345287321e-60 -106.307835981 1.08844921092e-50
0.87517894046 0.013838609166 1.97783246103 -0.555354791676 -1.89826278872 0 -2.2209548702 0 -2.22115899764 2.2209548702 -90 -0.555354791676 0.322692081479 0.642299886468 149.841151735 -120.158848265 2.14975053936e-58 -8.11580606971e-68 -2.77323758305e-67 2.88955207394e-67 -106.307608869 4.18751885092e-58
0.8751801286 0.013837797496 1.9777032939 -0.555312253799 -1.8981406522 0 -2.22080927647 0 -2.22101576929 2.22080927647 -90 -0.555312253799 0.322668624272 0.642251321813 149.841054557 -120.158945443 4.48113305455e-67 -1.40979603309e-76 -4.81758492668e-76 5.0196268461e-76 -106.307419598 8.73109597264e-67
0.87518111872 0.013837121104 1.97759563269 -0.555276800986 -1.89803885024 0 -2.22068792383 0 -2.22089641346 2.22068792383 -90 -0.555276800986 0.322649073591 0.642210845797 149.840973591 -120.159026409 6.9586976551e-77 -1.82484265238e-86 -6.23633619304e-86 6.49784172571e-86 -106.307261902 1.35687446605e-76
0.87533327836 0.0142128265 2.05144268008 -0.57387606353 -1.96953886312 0 -2.30343960049 0 -2.27935427115 2.30343960049 -90 -0.57387606353 0.333900737367 0.663945358224 149.807690105 -120.192309895 2.3396886232e-06 -8.18180595058e-15 -2.80799040321e-14 2.92476145876e-14 -106.244847371 4.92319276976e-06
0.87534582277 0.014203895182 2.05085459461 -0.573684393454 -1.96898216954 0 -2.30277683679 0 -2.27778187353 2.30277683679 -90 -0.573684393454 0.333794667247 0.663726346623 149.807283292 -120.192716708 1.32608051844e-06 -4.60820826578e-15 -1.5815396242e-14 1.64730793029e-14 -106.244056839 2.79021859634e-06
0.87535627645 0.014196452417 2.04965834922 -0.573294538918 -1.96784977057 0 -2.30142868655 0 -2.27647168467 2.30142868655 -90 -0.573294538918 0.333578915987 0.663280876825 149.806455832 -120.193544168 6.08544626288e-08 -1.76385506667e-16 -6.0542346847e-16 6.30594499771e-16 -106.242448857 1.27885783649e-07
0.87536498784 0.014190250112 2.03464263158 -0.56954896677 -1.95330079663 0 -2.28460535616 0 -2.27537995958 2.28460535616 -90 -0.56954896677 0.331304559523 0.658899654641 149.813698208 -120.186301792 1.20291825419e-09 -2.90513232908e-18 -9.97206614496e-18 1.03866211052e-17 -106.256003188 2.52358896202e-09
0.87537224734 0.014185081525 2.02564715157 -0.567306020621 -1.94458466832 0 -2.27452707952 0 -2.27447025739 2.27452707952 -90 -0.567306020621 0.329942411199 0.65627596134 149.818050222 -120.181949778 1.66561212612e-11 -3.29627278371e-20 -1.12805848026e-19 1.17523192504e-19 -106.264148204 3.34391462644e-11
0.87537829692 0.014180774369 2.02496344671 -0.56708246 -1.94393768323 0 -2.27375651379 0 -2.27371221998 2.27375651379 -90 -0.56708246 0.329818830561 0.656020578243 149.817563875 -120.182436125 2.58567002524e-19 -4.29913401801e-28 -1.47361207673e-27 1.53504348599e-27 -106.263202484 5.29942974636e-19
0.87538333824 0.014177185073 2.02439372943 -0.566896189468 -1.94339855809 0 -2.27311441762 0 -2.27308055534 2.27311441762 -90 -0.566896189468 0.329715859537 0.655807791408 149.817158642 -120.182841358 2.01291082719e-22 -2.78720757912e-31 -9.55419525692e-31 9.95244646564e-31 -106.262414477 4.12283836326e-22
0.87538753933 0.014174193992 2.02391898232 -0.566740982806 -1.94294929937 0 -2.27257935739 0 -2.2725541911 2.27257935739 -90 -0.566740982806 0.329630058026 0.655630489165 149.81682099 -120.18317901 6.98010577925e-26 -8.04968677952e-35 -2.75944896629e-34 2.87446249459e-34 -106.261757875 1.42887148796e-25
0.87539104025 0.014171701425 2.02352338319 -0.566611659787 -1.9425749367 0 -2.27213350052 0 -2.27211557019 2.27213350052 -90 -0.566611659787 0.32955856382 0.655482754574 149.816539637 -120.183460363 1.00133947234e-29 -9.61850166267e-39 -3.29735853633e-38 3.43478254715e-38 -106.261210747 2.04885004769e-29
0.87539395768 0.014169624286 2.02319372569 -0.566503899681 -1.9422629738 0 -2.27176196283 0 -2.2717500639 2.27176196283 -90 -0.566503899681 0.329498989029 0.655359652141 149.816305197 -120.183694803 4.48871893725e-34 -3.59154556973e-43 -1.23126531326e-42 1.28257809046e-42 -106.26075484 9.18046275965e-34
0.87539638887 0.014167893336 2.02291900557 -0.566414103141 -1.94200299782 0 -2.27145234207 0 -2.27144548292 2.27145234207 -90 -0.566414103141 0.329449344257 0.655257070301 149.816109851 -120.183890149 5.10832468441e-39 -3.40485109511e-48 -1.1672870248e-47 1.21593148209e-47 -106.260374955 1.04438473348e-38
0.87539841486 0.014166450879 2.02269009756 -0.56633928226 -1.94178637479 0 -2.27119435338 0 -2.27119167102 2.27119435338 -90 -0.56633928226 0.329407978589 0.655171596215 149.815947061 -120.184052939 1.18186074946e-44 -6.56254855503e-54 -2.24988221014e-53 2.34363848836e-53 -106.260058378 2.41554282653e-44
0.87540010319 0.01416524883 2.02249933527 -0.566276932526 -1.94160584939 0 -2.27097935658 0 -2.27098016455 2.27097935658 -90 -0.566276932526 0.329373507189 0.655100368672 149.815811414 -120.184188586 4.28193985772e-51 -1.98088504856e-60 -6.79130913032e-60 7.07430520302e-60 -106.259794585 8.74954027515e-51
0.87540151013 0.014164247124 2.02234035888 -0.566224974141 -1.94145540348 0 -2.2708001839 0 -2.27080391197 2.2708001839 -90 -0.566224974141 0.329344780426 0.655041011853 149.815698385 -120.184301615 1.65619070636e-58 -6.38350624428e-68 -2.18856528172e-67 2.27976104631e-67 -106.259574775 3.38353836511e-58
0.87540268258 0.014163412368 2.02220790789 -0.566181683756 -1.94133006 0 -2.27065090623 0 -2.27065703646 2.27065090623 -90 -0.566181683756 0.329320846228 0.654991557386 149.815604182 -120.184395818 3.53619076251e-67 -1.13565010897e-76 -3.89360750024e-76 4.05584558825e-76 -106.259391576 7.22370951067e-67
0.87540365962 0.014162716738 2.02209751353 -0.566145604726 -1.94122558887 0 -2.27052648745 0 -2.27053464146 2.27052648745 -90 -0.566145604726 0.329300898579 0.654950340877 149.815525693 -120.184474307 5.80008001263e-77 -1.55218130134e-86 -5.32183149585e-86 5.54356948924e-86 -106.259238935 1.18494110502e-76
0.87550278538 0.014579838491 2.10093296745 -0.586253839118 -2.01748005438 0 -2.35889147953 0 -2.33612214968 2.35889147953 -90 -0.586253839118 0.341411425148 0.678421200363 149.785143004 -120.214856996 0.000869287541788 -5.38500944973e-12 -1.85314763547e-11 1.9298029502e-11 -106.203187179 0.00191848254362