# vtk DataFile Version 3.0
vtk output
ASCII
DATASET UNSTRUCTURED_GRID
POINTS 10725 double
0.000000e+00	0.000000e+00	0.0	2.200000e+00	0.000000e+00	0.0	0.000000e+00	4.100000e-01	0.0	2.200000e+00	4.100000e-01	0.0	2.500000e-01	2.000000e-01	0.0	1.003286e-02	0.000000e+00	0.0	2.015723e-02	0.000000e+00	0.0	3.037394e-02	0.000000e+00	0.0	4.068384e-02	0.000000e+00	0.0	5.108777e-02	0.000000e+00	0.0	6.158659e-02	0.000000e+00	0.0	7.218117e-02	0.000000e+00	0.0	8.287238e-02	0.000000e+00	0.0	9.366111e-02	0.000000e+00	0.0	1.045482e-01	0.000000e+00	0.0	1.155347e-01	0.000000e+00	0.0	1.266213e-01	0.000000e+00	0.0	1.378090e-01	0.000000e+00	0.0	1.490988e-01	0.000000e+00	0.0	1.604916e-01	0.000000e+00	0.0	1.719882e-01	0.000000e+00	0.0	1.835898e-01	0.000000e+00	0.0	1.952971e-01	0.000000e+00	0.0	2.071113e-01	0.000000e+00	0.0	2.190331e-01	0.000000e+00	0.0	2.310637e-01	0.000000e+00	0.0	2.432041e-01	0.000000e+00	0.0	2.554552e-01	0.000000e+00	0.0	2.678180e-01	0.000000e+00	0.0	2.802935e-01	0.000000e+00	0.0	2.928829e-01	0.000000e+00	0.0	3.055871e-01	0.000000e+00	0.0	3.184071e-01	0.000000e+00	0.0	3.313441e-01	0.000000e+00	0.0	3.443991e-01	0.000000e+00	0.0	3.575732e-01	0.000000e+00	0.0	3.708674e-01	0.000000e+00	0.0	3.842828e-01	0.000000e+00	0.0	3.978207e-01	0.000000e+00	0.0	4.114820e-01	0.000000e+00	0.0	4.252679e-01	0.000000e+00	0.0	4.391795e-01	0.000000e+00	0.0	4.532180e-01	0.000000e+00	0.0	4.673846e-01	0.000000e+00	0.0	4.816804e-01	0.000000e+00	0.0	4.961065e-01	0.000000e+00	0.0	5.106643e-01	0.000000e+00	0.0	5.253548e-01	0.000000e+00	0.0	5.401793e-01	0.000000e+00	0.0	5.551390e-01	0.000000e+00	0.0	5.702352e-01	0.000000e+00	0.0	5.854690e-01	0.000000e+00	0.0	6.008418e-01	0.000000e+00	0.0	6.163548e-01	0.000000e+00	0.0	6.320093e-01	0.000000e+00	0.0	6.478066e-01	0.000000e+00	0.0	6.637480e-01	0.000000e+00	0.0	6.798348e-01	0.000000e+00	0.0	6.960682e-01	0.000000e+00	0.0	7.124498e-01	0.000000e+00	0.0	7.289808e-01	0.000000e+00	0.0	7.456625e-01	0.000000e+00	0.0	7.624964e-01	0.000000e+00	0.0	7.794838e-01	0.000000e+00	0.0	7.966262e-01	0.000000e+00	0.0	8.139249e-01	0.000000e+00	0.0	8.313814e-01	0.000000e+00	0.0	8.489971e-01	0.000000e+00	0.0	8.667735e-01	0.000000e+00	0.0	8.847120e-01	0.000000e+00	0.0	9.028141e-01	0.000000e+00	0.0	9.210813e-01	0.000000e+00	0.0	9.395152e-01	0.000000e+00	0.0	9.581172e-01	0.000000e+00	0.0	9.768888e-01	0.000000e+00	0.0	9.958317e-01	0.000000e+00	0.0	1.014947e+00	0.000000e+00	0.0	1.034237e+00	0.000000e+00	0.0	1.053703e+00	0.000000e+00	0.0	1.073347e+00	0.000000e+00	0.0	1.093169e+00	0.000000e+00	0.0	1.113173e+00	0.000000e+00	0.0	1.133359e+00	0.000000e+00	0.0	1.153729e+00	0.000000e+00	0.0	1.174284e+00	0.000000e+00	0.0	1.195028e+00	0.000000e+00	0.0	1.215960e+00	0.000000e+00	0.0	1.237083e+00	0.000000e+00	0.0	1.258399e+00	0.000000e+00	0.0	1.279910e+00	0.000000e+00	0.0	1.301617e+00	0.000000e+00	0.0	1.323521e+00	0.000000e+00	0.0	1.345626e+00	0.000000e+00	0.0	1.367932e+00	0.000000e+00	0.0	1.390441e+00	0.000000e+00	0.0	1.413156e+00	0.000000e+00	0.0	1.436078e+00	0.000000e+00	0.0	1.459209e+00	0.000000e+00	0.0	1.482551e+00	0.000000e+00	0.0	1.506106e+00	0.000000e+00	0.0	1.529875e+00	0.000000e+00	0.0	1.553862e+00	0.000000e+00	0.0	1.578067e+00	0.000000e+00	0.0	1.602493e+00	0.000000e+00	0.0	1.627142e+00	0.000000e+00	0.0	1.652016e+00	0.000000e+00	0.0	1.677116e+00	0.000000e+00	0.0	1.702446e+00	0.000000e+00	0.0	1.728006e+00	0.000000e+00	0.0	1.753800e+00	0.000000e+00	0.0	1.779829e+00	0.000000e+00	0.0	1.806095e+00	0.000000e+00	0.0	1.832601e+00	0.000000e+00	0.0	1.859349e+00	0.000000e+00	0.0	1.886340e+00	0.000000e+00	0.0	1.913578e+00	0.000000e+00	0.0	1.941064e+00	0.000000e+00	0.0	1.968801e+00	0.000000e+00	0.0	1.996791e+00	0.000000e+00	0.0	2.025036e+00	0.000000e+00	0.0	2.053539e+00	0.000000e+00	0.0	2.082302e+00	0.000000e+00	0.0	2.111327e+00	0.000000e+00	0.0	2.140617e+00	0.000000e+00	0.0	2.170173e+00	0.000000e+00	0.0	2.200000e+00	1.000000e-03	0.0	2.200000e+00	2.050000e-03	0.0	2.200000e+00	3.152500e-03	0.0	2.200000e+00	4.310125e-03	0.0	2.200000e+00	5.525631e-03	0.0	2.200000e+00	6.801913e-03	0.0	2.200000e+00	8.142008e-03	0.0	2.200000e+00	9.549109e-03	0.0	2.200000e+00	3.747066e-02	0.0	2.200000e+00	6.539222e-02	0.0	2.200000e+00	9.331378e-02	0.0	2.200000e+00	1.212353e-01	0.0	2.200000e+00	1.491569e-01	0.0	2.200000e+00	1.770784e-01	0.0	2.200000e+00	2.050000e-01	0.0	2.200000e+00	2.329216e-01	0.0	2.200000e+00	2.608431e-01	0.0	2.200000e+00	2.887647e-01	0.0	2.200000e+00	3.166862e-01	0.0	2.200000e+00	3.446078e-01	0.0	2.200000e+00	3.725293e-01	0.0	2.200000e+00	4.004509e-01	0.0	2.200000e+00	4.018580e-01	0.0	2.200000e+00	4.031981e-01	0.0	2.200000e+00	4.044744e-01	0.0	2.200000e+00	4.056899e-01	0.0	2.200000e+00	4.068475e-01	0.0	2.200000e+00	4.079500e-01	0.0	2.200000e+00	4.090000e-01	0.0	2.170173e+00	4.100000e-01	0.0	2.140617e+00	4.100000e-01	0.0	2.111327e+00	4.100000e-01	0.0	2.082302e+00	4.100000e-01	0.0	2.053539e+00	4.100000e-01	0.0	2.025036e+00	4.100000e-01	0.0	1.996791e+00	4.100000e-01	0.0	1.968801e+00	4.100000e-01	0.0	1.941064e+00	4.100000e-01	0.0	1.913578e+00	4.100000e-01	0.0	1.886340e+00	4.100000e-01	0.0	1.859349e+00	4.100000e-01	0.0	1.832601e+00	4.100000e-01	0.0	1.806095e+00	4.100000e-01	0.0	1.779829e+00	4.100000e-01	0.0	1.753800e+00	4.100000e-01	0.0	1.728006e+00	4.100000e-01	0.0	1.702446e+00	4.100000e-01	0.0	1.677116e+00	4.100000e-01	0.0	1.652016e+00	4.100000e-01	0.0	1.627142e+00	4.100000e-01	0.0	1.602493e+00	4.100000e-01	0.0	1.578067e+00	4.100000e-01	0.0	1.553862e+00	4.100000e-01	0.0	1.529875e+00	4.100000e-01	0.0	1.506106e+00	4.100000e-01	0.0	1.482551e+00	4.100000e-01	0.0	1.459209e+00	4.100000e-01	0.0	1.436078e+00	4.100000e-01	0.0	1.413156e+00	4.100000e-01	0.0	1.390441e+00	4.100000e-01	0.0	1.367932e+00	4.100000e-01	0.0	1.345626e+00	4.100000e-01	0.0	1.323521e+00	4.100000e-01	0.0	1.301617e+00	4.100000e-01	0.0	1.279910e+00	4.100000e-01	0.0	1.258399e+00	4.100000e-01	0.0	1.237083e+00	4.100000e-01	0.0	1.215960e+00	4.100000e-01	0.0	1.195028e+00	4.100000e-01	0.0	1.174284e+00	4.100000e-01	0.0	1.153729e+00	4.100000e-01	0.0	1.133359e+00	4.100000e-01	0.0	1.113173e+00	4.100000e-01	0.0	1.093169e+00	4.100000e-01	0.0	1.073347e+00	4.100000e-01	0.0	1.053703e+00	4.100000e-01	0.0	1.034237e+00	4.100000e-01	0.0	1.014947e+00	4.100000e-01	0.0	9.958317e-01	4.100000e-01	0.0	9.768888e-01	4.100000e-01	0.0	9.581172e-01	4.100000e-01	0.0	9.395152e-01	4.100000e-01	0.0	9.210813e-01	4.100000e-01	0.0	9.028141e-01	4.100000e-01	0.0	8.847120e-01	4.100000e-01	0.0	8.667735e-01	4.100000e-01	0.0	8.489971e-01	4.100000e-01	0.0	8.313814e-01	4.100000e-01	0.0	8.139249e-01	4.100000e-01	0.0	7.966262e-01	4.100000e-01	0.0	7.794838e-01	4.100000e-01	0.0	7.624964e-01	4.100000e-01	0.0	7.456625e-01	4.100000e-01	0.0	7.289808e-01	4.100000e-01	0.0	7.124498e-01	4.100000e-01	0.0	6.960682e-01	4.100000e-01	0.0	6.798348e-01	4.100000e-01	0.0	6.637480e-01	4.100000e-01	0.0	6.478066e-01	4.100000e-01	0.0	6.320093e-01	4.100000e-01	0.0	6.163548e-01	4.100000e-01	0.0	6.008418e-01	4.100000e-01	0.0	5.854690e-01	4.100000e-01	0.0	5.702352e-01	4.100000e-01	0.0	5.551390e-01	4.100000e-01	0.0	5.401793e-01	4.100000e-01	0.0	5.253548e-01	4.100000e-01	0.0	5.106643e-01	4.100000e-01	0.0	4.961065e-01	4.100000e-01	0.0	4.816804e-01	4.100000e-01	0.0	4.673846e-01	4.100000e-01	0.0	4.532180e-01	4.100000e-01	0.0	4.391795e-01	4.100000e-01	0.0	4.252679e-01	4.100000e-01	0.0	4.114820e-01	4.100000e-01	0.0	3.978207e-01	4.100000e-01	0.0	3.842828e-01	4.100000e-01	0.0	3.708674e-01	4.100000e-01	0.0	3.575732e-01	4.100000e-01	0.0	3.443991e-01	4.100000e-01	0.0	3.313441e-01	4.100000e-01	0.0	3.184071e-01	4.100000e-01	0.0	3.055871e-01	4.100000e-01	0.0	2.928829e-01	4.100000e-01	0.0	2.802935e-01	4.100000e-01	0.0	2.678180e-01	4.100000e-01	0.0	2.554552e-01	4.100000e-01	0.0	2.432041e-01	4.100000e-01	0.0	2.310637e-01	4.100000e-01	0.0	2.190331e-01	4.100000e-01	0.0	2.071113e-01	4.100000e-01	0.0	1.952971e-01	4.100000e-01	0.0	1.835898e-01	4.100000e-01	0.0	1.719882e-01	4.100000e-01	0.0	1.604916e-01	4.100000e-01	0.0	1.490988e-01	4.100000e-01	0.0	1.378090e-01	4.100000e-01	0.0	1.266213e-01	4.100000e-01	0.0	1.155347e-01	4.100000e-01	0.0	1.045482e-01	4.100000e-01	0.0	9.366111e-02	4.100000e-01	0.0	8.287238e-02	4.100000e-01	0.0	7.218117e-02	4.100000e-01	0.0	6.158659e-02	4.100000e-01	0.0	5.108777e-02	4.100000e-01	0.0	4.068384e-02	4.100000e-01	0.0	3.037394e-02	4.100000e-01	0.0	2.015723e-02	4.100000e-01	0.0	1.003286e-02	4.100000e-01	0.0	0.000000e+00	4.090000e-01	0.0	0.000000e+00	4.079500e-01	0.0	0.000000e+00	4.068475e-01	0.0	0.000000e+00	4.056899e-01	0.0	0.000000e+00	4.044744e-01	0.0	0.000000e+00	4.031981e-01	0.0	0.000000e+00	4.018580e-01	0.0	0.000000e+00	4.004509e-01	0.0	0.000000e+00	3.906783e-01	0.0	0.000000e+00	3.809058e-01	0.0	0.000000e+00	3.711333e-01	0.0	0.000000e+00	3.613607e-01	0.0	0.000000e+00	3.515882e-01	0.0	0.000000e+00	3.418156e-01	0.0	0.000000e+00	3.320431e-01	0.0	0.000000e+00	3.222705e-01	0.0	0.000000e+00	3.124980e-01	0.0	0.000000e+00	3.027254e-01	0.0	0.000000e+00	2.929529e-01	0.0	0.000000e+00	2.831804e-01	0.0	0.000000e+00	2.734078e-01	0.0	0.000000e+00	2.636353e-01	0.0	0.000000e+00	2.538627e-01	0.0	0.000000e+00	2.440902e-01	0.0	0.000000e+00	2.343176e-01	0.0	0.000000e+00	2.245451e-01	0.0	0.000000e+00	2.147725e-01	0.0	0.000000e+00	2.050000e-01	0.0	0.000000e+00	1.952275e-01	0.0	0.000000e+00	1.854549e-01	0.0	0.000000e+00	1.756824e-01	0.0	0.000000e+00	1.659098e-01	0.0	0.000000e+00	1.561373e-01	0.0	0.000000e+00	1.463647e-01	0.0	0.000000e+00	1.365922e-01	0.0	0.000000e+00	1.268196e-01	0.0	0.000000e+00	1.170471e-01	0.0	0.000000e+00	1.072746e-01	0.0	0.000000e+00	9.750201e-02	0.0	0.000000e+00	8.772947e-02	0.0	0.000000e+00	7.795692e-02	0.0	0.000000e+00	6.818438e-02	0.0	0.000000e+00	5.841183e-02	0.0	0.000000e+00	4.863929e-02	0.0	0.000000e+00	3.886674e-02	0.0	0.000000e+00	2.909420e-02	0.0	0.000000e+00	1.932165e-02	0.0	0.000000e+00	9.549109e-03	0.0	0.000000e+00	8.142008e-03	0.0	0.000000e+00	6.801913e-03	0.0	0.000000e+00	5.525631e-03	0.0	0.000000e+00	4.310125e-03	0.0	0.000000e+00	3.152500e-03	0.0	0.000000e+00	2.050000e-03	0.0	0.000000e+00	1.000000e-03	0.0	2.498993e-01	2.031712e-01	0.0	2.495977e-
[...]
POINT_DATA 10725

SCALARS Pressure double 1
LOOKUP_TABLE default
1.662853e+00	1.697132e-01	1.619653e+00	1.717976e-01	4.604946e-01	1.683402e+00	1.689194e+00	1.688792e+00	1.685749e+00	1.680793e+00	1.673691e+00	1.664320e+00	1.652232e+00	1.636629e+00	1.616816e+00	1.591739e+00	1.561478e+00	1.527045e+00	1.486030e+00	1.438501e+00	1.385748e+00	1.330238e+00	1.270114e+00	1.208301e+00	1.147398e+00	1.088046e+00	1.029923e+00	9.772873e-01	9.320945e-01	8.913109e-01	8.563570e-01	8.266305e-01	8.030426e-01	7.842335e-01	7.701660e-01	7.598404e-01	7.532944e-01	7.492892e-01	7.473413e-01	7.463555e-01	7.470805e-01	7.492363e-01	7.511717e-01	7.530943e-01	7.549152e-01	7.567571e-01	7.582665e-01	7.589590e-01	7.584949e-01	7.580728e-01	7.581712e-01	7.567325e-01	7.544237e-01	7.514412e-01	7.479261e-01	7.438250e-01	7.392311e-01	7.339991e-01	7.278054e-01	7.209436e-01	7.146148e-01	7.076034e-01	7.000097e-01	6.922397e-01	6.840861e-01	6.756456e-01	6.672926e-01	6.589499e-01	6.501626e-01	6.412144e-01	6.322461e-01	6.229866e-01	6.139607e-01	6.048989e-01	5.954807e-01	5.847337e-01	5.755016e-01	5.666209e-01	5.565280e-01	5.469408e-01	5.374950e-01	5.283143e-01	5.187104e-01	5.085597e-01	4.982920e-01	4.890788e-01	4.788604e-01	4.683917e-01	4.590905e-01	4.499173e-01	4.397524e-01	4.304074e-01	4.208784e-01	4.110993e-01	4.010992e-01	3.909405e-01	3.810719e-01	3.714125e-01	3.604765e-01	3.504878e-01	3.401059e-01	3.300953e-01	3.205454e-01	3.104152e-01	3.002039e-01	2.893649e-01	2.801977e-01	2.704579e-01	2.594521e-01	2.495671e-01	2.400957e-01	2.290882e-01	2.189687e-01	2.076441e-01	1.970684e-01	1.865789e-01	1.752847e-01	1.660106e-01	1.556571e-01	1.448074e-01	1.350726e-01	1.276115e-01	1.211093e-01	1.195171e-01	1.190414e-01	1.724204e-01	1.746074e-01	1.769627e-01	1.793844e-01	1.817550e-01	1.889377e-01	2.380783e-01	4.631561e-01	1.294491e-01	2.230784e-02	7.638255e-03	-1.019854e-02	-1.087282e-02	-1.842196e-02	-1.963067e-02	-1.902611e-02	-1.764109e-02	-1.687430e-02	3.238283e-03	-2.979770e-02	1.242835e-01	4.877674e-01	2.461496e-01	1.934931e-01	1.856659e-01	1.829582e-01	1.801907e-01	1.774932e-01	1.749625e-01	1.158132e-01	1.180528e-01	1.174535e-01	1.256164e-01	1.343093e-01	1.435486e-01	1.536262e-01	1.644676e-01	1.759766e-01	1.857719e-01	1.958953e-01	2.066198e-01	2.163782e-01	2.277562e-01	2.379354e-01	2.475479e-01	2.587036e-01	2.693214e-01	2.791163e-01	2.891845e-01	2.994489e-01	3.091349e-01	3.199073e-01	3.305704e-01	3.401387e-01	3.498624e-01	3.601997e-01	3.703709e-01	3.801791e-01	3.899368e-01	3.997007e-01	4.095601e-01	4.200302e-01	4.297500e-01	4.395038e-01	4.491704e-01	4.582238e-01	4.676823e-01	4.778950e-01	4.874343e-01	4.975350e-01	5.082548e-01	5.182364e-01	5.282400e-01	5.369107e-01	5.469409e-01	5.569175e-01	5.665248e-01	5.759469e-01	5.860834e-01	5.952774e-01	6.043759e-01	6.140541e-01	6.236826e-01	6.327343e-01	6.419681e-01	6.509995e-01	6.600476e-01	6.681873e-01	6.768116e-01	6.849782e-01	6.924140e-01	7.005357e-01	7.076984e-01	7.151445e-01	7.216158e-01	7.272912e-01	7.333826e-01	7.391095e-01	7.435330e-01	7.470966e-01	7.503948e-01	7.540233e-01	7.570305e-01	7.587938e-01	7.600688e-01	7.609402e-01	7.612965e-01	7.616440e-01	7.616622e-01	7.608268e-01	7.603503e-01	7.603212e-01	7.598537e-01	7.613655e-01	7.617856e-01	7.653965e-01	7.705978e-01	7.772267e-01	7.865970e-01	7.995790e-01	8.163013e-01	8.369486e-01	8.617881e-01	8.918509e-01	9.270228e-01	9.674118e-01	1.011278e+00	1.059606e+00	1.110181e+00	1.164436e+00	1.218228e+00	1.272461e+00	1.324916e+00	1.373962e+00	1.420147e+00	1.461191e+00	1.497206e+00	1.528051e+00	1.554776e+00	1.577366e+00	1.595586e+00	1.610057e+00	1.621697e+00	1.630550e+00	1.637329e+00	1.642447e+00	1.645832e+00	1.646403e+00	1.640116e+00	1.622106e+00	1.623940e+00	1.625649e+00	1.627428e+00	1.629245e+00	1.628723e+00	1.610456e+00	1.536729e+00	1.638845e+00	1.641923e+00	1.647917e+00	1.656329e+00	1.666991e+00	1.680838e+00	1.698358e+00	1.720631e+00	1.747001e+00	1.777465e+00	1.811205e+00	1.848031e+00	1.886089e+00	1.924590e+00	1.961719e+00	1.995838e+00	2.025801e+00	2.049932e+00	2.066821e+00	2.075465e+00	2.075515e+00	2.067083e+00	2.050729e+00	2.027424e+00	1.998450e+00	1.965290e+00	1.930094e+00	1.893789e+00	1.858154e+00	1.824720e+00	1.793633e+00	1.767174e+00	1.743977e+00	1.725394e+00	1.710833e+00	1.701041e+00	1.690549e+00	1.685694e+00	1.681795e+00	1.579869e+00	1.653640e+00	1.671903e+00	1.672419e+00	1.670598e+00	1.668820e+00	1.667116e+00	1.665290e+00	4.585368e-01	4.514593e-01	4.395485e-01	4.232477e-01	4.030868e-01	3.796184e-01	3.533701e-01	3.246631e-01	2.937273e-01	2.608257e-01	2.260158e-01	1.890827e-01	1.499357e-01	1.087527e-01	6.593208e-02	2.204724e-02	-2.207108e-02	-6.534099e-02	-1.064881e-01	-1.440169e-01	-1.762704e-01	-2.012910e-01	-2.170569e-01	-2.213809e-01	-2.122707e-01	-1.878219e-01	-1.463743e-01	-8.648505e-02	-6.785423e-03	9.362033e-02	2.153076e-01	3.581047e-01	5.211163e-01	7.029366e-01	9.016932e-01	1.115072e+00	1.340168e+00	1.573564e+00	1.811124e+00	2.048285e+00	2.280227e+00	2.502026e+00	2.708766e+00	2.895679e+00	3.058517e+00	3.193396e+00	3.296997e+00	3.366652e+00	3.400622e+00	3.398069e+00	3.359255e+00	3.285287e+00	3.178137e+00	3.040471e+00	2.875735e+00	2.688000e+00	2.481735e+00	2.261569e+00	2.032299e+00	1.798703e+00	1.565199e+00	1.336035e+00	1.115154e+00	9.059592e-01	7.112935e-01	5.333927e-01	3.737943e-01	2.336542e-01	1.136028e-01	1.383847e-02	-6.594663e-02	-1.264834e-01	-1.689100e-01	-1.946830e-01	-2.056560e-01	-2.036173e-01	-1.904407e-01	-1.680536e-01	-1.384048e-01	-1.032365e-01	-6.416339e-02	-2.270357e-02	1.983967e-02	6.244676e-02	1.042877e-01	1.447167e-01	1.833201e-01	2.200085e-01	2.547951e-01	2.876566e-01	3.185498e-01	3.473982e-01	3.740132e-01	3.980218e-01	4.188709e-01	4.360384e-01	4.489941e-01	4.572620e-01	4.011063e-01	4.011114e-01	4.011163e-01	4.011215e-01	4.011279e-01	4.011339e-01	4.011083e-01	4.008130e-01	3.909599e-01	3.909735e-01	3.909860e-01	3.909985e-01	3.910116e-01	3.910235e-01	3.910099e-01	3.907969e-01	9.779510e-01	9.783999e-01	9.787867e-01	9.791317e-01	9.794220e-01	9.796464e-01	9.798725e-01	9.810903e-01	8.573971e-01	8.581300e-01	8.588110e-01	8.594833e-01	8.601476e-01	8.608013e-01	8.613024e-01	8.597614e-01	2.163919e-01	2.164007e-01	2.164072e-01	2.164109e-01	2.164111e-01	2.164182e-01	2.165146e-01	2.169091e-01	2.277907e-01	2.278176e-01	2.278464e-01	2.278792e-01	2.279166e-01	2.279589e-01	2.280143e-01	2.282284e-01	2.379608e-01	2.379801e-01	2.380003e-01	2.380230e-01	2.380485e-01	2.380727e-01	2.380587e-01	2.379289e-01	2.475589e-01	2.475652e-01	2.475684e-01	2.475684e-01	2.475649e-01	2.475639e-01	2.476028e-01	2.476810e-01	7.435688e-01	7.435986e-01	7.436336e-01	7.436774e-01	7.437334e-01	7.438006e-01	7.438250e-01	7.433903e-01	7.471586e-01	7.472046e-01	7.472513e-01	7.473035e-01	7.473649e-01	7.474242e-01	7.473313e-01	7.461845e-01	7.504672e-01	7.505193e-01	7.505694e-01	7.506222e-01	7.506811e-01	7.507391e-01	7.506758e-01	7.495548e-01	7.540910e-01	7.541427e-01	7.541970e-01	7.542597e-01	7.543350e-01	7.544156e-01	7.543671e-01	7.532264e-01	7.571050e-01	7.571637e-01	7.572281e-01	7.573048e-01	7.573989e-01	7.575048e-01	7.574887e-01	7.563580e-01	1.087974e+00	1.087908e+00	1.087821e+00	1.087702e+00	1.087539e+00	1.087357e+00	1.087439e+00	1.089390e+00	1.269008e+00	1.268200e+00	1.267404e+00	1.266559e+00	1.265644e+00	1.264682e+00	1.264188e+00	1.268095e+00	1.660315e-01	1.660476e-01	1.660644e-01	1.660833e-01	1.661054e-01	1.661360e-01	1.661942e-01	1.662675e-01	1.556707e-01	1.556813e-01	1.556930e-01	1.557070e-01	1.557244e-01	1.557428e-01	1.557249e-01	1.554387e-01	1.448408e-01	1.448638e-01	1.448844e-01	1.449046e-01	1.449248e-01	1.449375e-01	1.448778e-01	1.444148e-01	7.875775e-01	7.882811e-01	7.889549e-01	7.896459e-01	7.903634e-01	7.910923e-01	7.915083e-01	7.888827e-01	8.005990e-01	8.013309e-01	8.020314e-01	8.027492e-01	8.034930e-01	8.042498e-01	8.047215e-01	8.025323e-01	8.173171e-01	8.180445e-01	8.187385e-01	8.194461e-01	8.201740e-01	8.209137e-01	8.214234e-01	8.195544e-01	8.379436e-01	8.386530e-01	8.393250e-01	8.400043e-01	8.406956e-01	8.413947e-01	8.419235e-01	8.405395e-01	8.627417e-01	8.634160e-01	8.640459e-01	8.646723e-01	8.652962e-01	8.659093e-01	8.663571e-01	8.652534e-01	4.983102e-01	4.983227e-01	4.983338e-01	4.983453e-01	4.983583e-01	4.983680e-01	4.983224e-01	4.979180e-01	4.890817e-01	4.890847e-01	4.890894e-01	4.890963e-01	4.891071e-01	4.891212e-01	4.891049e-01	4.887411e-01	4.397880e-01	4.398134e-01	4.398375e-01	4.398620e-01	4.398874e-01	4.399108e-01	4.399014e-01	4.396875e-01	4.304203e-01	4.304291e-01	4.304371e-01	4.304447e-01	4.304526e-01	4.304641e-01	4.304873e-01	4.304073e-01	4.591317e-01	4.591618e-01	4.591913e-01	4.592230e-01	4.592575e-01	4.592838e-01	4.592061e-01	4.586724e-01	4.499607e-01	4.499942e-01	4.500295e-01	4.500690e-01	4.501134e-01	4.501686e-01	4.502787e-01	4.506369e-01	5.187074e-01	5.187059e-01	5.187057e-01	5.187067e-01	5.187099e-01	5.187208e-01	5.187562e-01	5.186454e-01	5.085592e-01	5.085579e-01	5.085553e-01	5.085524e-01	5.085509e-01	5.085392e-01	5.083930e-01	5.074024e-01	5.565676e-01	5.565963e-01	5.566241e-01	5.566531e-01	5.566839e-01	5.567151e-01	5.567214e-01	5.565101e-01	5.469872e-01	5.470202e-01	5.470512e-01	5.470822e-01	5.471140e-01	5.471461e-01	5.471594e-01	5.469859e-01	5.954809e-01	5.954823e-01	5.954860e-01	5.954931e-01	5.955061e-01	5.955215e-01	5.954693e-01	5.948391e-01	5.847539e-01	5.847655e-01	5.847722e-01	5.847744e-01	5.847723e-01	5.847648e-01	5.847249e-01	5.842673e-01	1.970719e-01	1.970745e-01	1.970770e-01	1.970796e-01	1.970828e-01	1.970858e-01	1.970769e-01	1.969801e-01	1.865888e-01	1.865960e-01	1.866030e-01	1.866102e-01	1.866179e-01	1.866276e-01	1.866434e-01	1.866367e-01	1.753117e-01	1.753303e-01	1.753468e-01	1.753623e-01	1.753766e-01	1.753870e-01	1.753707e-01	1.752201e-01	4.788749e-01	4.788858e-01	4.788975e-01	4.789116e-01	4.789302e-01	4.789477e-01	4.788835e-01	4.782602e-01	4.684287e-01	4.684538e-01	4.684751e-01	4.684938e-01	4.685097e-01	4.685283e-01	4.685819e-01	4.686405e-01	1.372527e+00	1.371488e+00	1.370483e+00	1.369439e+00	1.368344e+00	1.367206e+00	1.366377e+00	1.369108e+00	1.418589e+00	1.417470e+00	1.416397e+00	1.415294e+00	1.414148e+00	1.412985e+00	1.412259e+00	1.415379e+00	1.459573e+00	1.458415e+00	1.457312e+00	1.456190e+00	1.455040e+00	1.453867e+00	1.452966e+00	1.455344e+00	1.495579e+00	1.494413e+00	1.493299e+00	1.492160e+00	1.490981e+00	1.489770e+00	1.488905e+00	1.492201e+00	1.526462e+00	1.525318e+00	1.524217e+00	1.523080e+00	1.521889e+00	1.520676e+00	1.520018e+00	1.524153e+00	6.140795e-01	6.140978e-01	6.141156e-01	6.141351e-01	6.141578e-01	6.141781e-01	6.141218e-01	6.134934e-01	6.237104e-01	6.237319e-01	6.237547e-01	6.237812e-01	6.238128e-01	6.238461e-01	6.238299e-01	6.234375e-01	6.327725e-01	6.328011e-01	6.328300e-01	6.328621e-01	6.328990e-01	6.329406e-01	6.329589e-01	6.327288e-01	6.419936e-01	6.420118e-01	6.420291e-01	6.420477e-01	6.420695e-01	6.420884e-01	6.420113e-01	6.412269e-01	5.759773e-01	5.759983e-01	5.760170e-01	5.760344e-01	5.760505e-01	5.760719e-01	5.761303e-01	5.761222e-01	5.861243e-01	5.861561e-01	5.861904e-01	5.862305e-01	5.862780e-01	5.863302e-01	5.863463e-01	5.861466e-01	5.953194e-01	5.953510e-01	5.953833e-01	5.954195e-01	5.954614e-01	5.954994e-01	5.954416e-01	5.948784e-01	6.044119e-01	6.044365e-01	6.044583e-01	6.044788e-01	6.044990e-01	6.045183e-01	6.045039e-01	6.040705e-01	7.854155e-01	7.862620e-01	7.870700e-01	7.878943e-01	7.887429e-01	7.895999e-01	7.901426e-01	7.877008e-01	9.329280e-01	9.335129e-01	9.340520e-01	9.345773e-01	9.350840e-01	9.355812e-01	9.361709e-01	9.372408e-01	8.042364e-01	8.050892e-01	8.059001e-01	8.067244e-01	8.075703e-01	8.084277e-01	8.090301e-01	8.070502e-01	4.975567e-01	4.975715e-01	4.975850e-01	4.975994e-01	4.976172e-01	4.976288e-01	4.975219e-01	4.966194e-01	5.082640e-01	5.082708e-01	5.082780e-01	5.082876e-01	5.083025e-01	5.083091e-01	5.081524e-01	5.069299e-01	5.182596e-01	5.182778e-01	5.182976e-01	5.183205e-01	5.183481e-01	5.183850e-01	5.184381e-01	5.182881e-01	5.282870e-01	5.283237e-01	5.283631e-01	5.284096e-01	5.284659e-01	5.285236e-01	5.284837e-01	5.279704e-01	7.586680e-01	7.587947e-01	7.589202e-01	7.590557e-01	7.592080e-01	7.593646e-01	7.593058e-01	7.573908e-01	7.582204e-01	7.583282e-01	7.584345e-01	7.585492e-01	7.586784e-01	7.588036e-01	7.586754e-01	7.567224e-01	7.278132e-01	7.278201e-01	7.278289e-01	7.278413e-01	7.278601e-01	7.278783e-01	7.278002e-01	7.269814e-01	7.209641e-01	7.209781e-01	7.209905e-01	7.210028e-01	7.210168e-01	7.210273e-01	7.209630e-01	7.202695e-01	1.436690e+00	1.435384e+00	1.434121e+00	1.432811e+00	1.431432e+00	1.430032e+00	1.429365e+00	1.434395e+00	8.922530e-01	8.929165e-01	8.935327e-01	8.941400e-01	8.947368e-01	8.953162e-01	8.957768e-01	8.951942e-01	7.609426e-01	7.617361e-01	7.624996e-01	7.632872e-01	7.641105e-01	7.649525e-01	7.654272e-01	7.624056e-01	7.589056e-01	7.589899e-01	7.590773e-01	7.591755e-01	7.592898e-01	7.594141e-01	7.594069e-01	7.581992e-01	7.602190e-01	7.603312e-01	7.604454e-01	7.605715e-01	7.607153e-01	7.608685e-01	7.608743e-01	7.595870e-01	7.611190e-01	7.612520e-01	7.613867e-01	7.615355e-01	7.617056e-01	7.618814e-01	7.618116e-01	7.598168e-01	7.615069e-01	7.616617e-01	7.618161e-01	7.619835e-01	7.621712e-01	7.623667e-01	7.623353e-01	7.603204e-01	7.618829e-01	7.620599e-01	7.622384e-01	7.624333e-01	7.626523e-01	7.628831e-01	7.628962e-01	7.610174e-01	7.481581e-01	7.487531e-01	7.493367e-01	7.499523e-01	7.506143e-01	7.513024e-01	7.515882e-01	7.481469e-01	7.471043e-01	7.476477e-01	7.481777e-01	7.487344e-01	7.493310e-01	7.499434e-01	7.501327e-01	7.466289e-01	6.510144e-01	6.510254e-01	6.510368e-01	6.510491e-01	6.510635e-01	6.510847e-01	6.511213e-01	6.509464e-01	6.600735e-01	6.600939e-01	6.601166e-01	6.601443e-01	6.601794e-01	6.602147e-01	6.601617e-01	6.596179e-01	6.682236e-01	6.682498e-01	6.682750e-01	6.683007e-01	6.683272e-01	6.683576e-01	6.684069e-01	6.684081e-01	6.768407e-01	6.768630e-01	6.768863e-01	6.769128e-01	6.769438e-01	6.769790e-01	6.769892e-01	6.767518e-01	1.759720e-01	1.759699e-01	1.759699e-01	1.759723e-01	1.759784e-01	1.759902e-01	1.760019e-01	1.758859e-01	1.857811e-01	1.857880e-01	1.857947e-01	1.858019e-01	1.858099e-01	1.858176e-01	1.858128e-01	1.857418e-01	1.959041e-01	1.959103e-01	1.959159e-01	1.959214e-01	1.959267e-01	1.959308e-01	1.959315e-01	1.959259e-01	2.066174e-01	2.066154e-01	2.066132e-01	2.066117e-01	2.066122e-01	2.066068e-01	2.065073e-01	2.058631e-01	3.504773e-01	3.504688e-01	3.504596e-01	3.504493e-01	3.504387e-01	3.504301e-01	3.504110e-01	3.500908e-01	3.401150e-01	3.401210e-01	3.401265e-01	3.401326e-01	3.401403e-01	3.401367e-01	3.400088e-01	3.392736e-01	3.301253e-01	3.301472e-01	3.301683e-01	3.301898e-01	3.302112e-01	3.302368e-01	3.303111e-01	3.306754e-01	4.200336e-01	4.200367e-01	4.200410e-01	4.200476e-01	4.200581e-01	4.200695e-01	4.200320e-01	4.195941e-01	4.297606e-01	4.297683e-01	4.297761e-01	4.297854e-01	4.297982e-01	4.298035e-01	4.296862e-01	4.288391e-01	4.395328e-01	4.395544e-01	4.395761e-01	4.395993e-01	4.396246e-01	4.396604e-01	4.397561e-01	4.399453e-01	4.492092e-01	4.492388e-01	4.492701e-01	4.493061e-01	4.493488e-01	4.493882e-01	4.493271e-01	4.488220e-01	1.559681e+00	1.558387e+00	1.557142e+00	1.555859e+00	1.554521e+00	1.553133e+00	1.552101e+00	1.555423e+00	1.110040e+00	1.109916e+00	1.109764e+00	1.109565e+00	1.109302e+00	1.108993e+00	1.109026e+00	1.111908e+00	1.164016e+00	1.163703e+00	1.163385e+00	1.163035e+00	1.162640e+00	1.162236e+00	1.162294e+00	1.165991e+00	1.217496e+00	1.216956e+00	1.216416e+00	1.215834e+00	1.215191e+00	1.214492e+00	1.214074e+00	1.217357e+00	1.271401e+00	1.270625e+00	1.269858e+00	1.269040e+00	1.268149e+00	1.267231e+00	1.266949e+00	1.271363e+00	1.323621e+00	1.322683e+00	1.321773e+00	1.320825e+00	1.319827e+00	1.318804e+00	1.318187e+00	1.321153e+00	1.182703e-01	1.201257e-01	1.220293e-01	1.241301e-01	1.264775e-01	1.288768e-01	1.291093e-01	1.174178e-01	1.188839e-01	1.194426e-01	1.199272e-01	1.203579e-01	1.206975e-01	1.208177e-01	1.203070e-01	1.188199e-01	1.174978e-01	1.175180e-01	1.175336e-01	1.175507e-01	1.175768e-01	1.175932e-01	1.172979e-01	1.148604e-01	1.256669e-01	1.257011e-01	1.257350e-01	1.257751e-01	1.258278e-01	1.258869e-01	1.258197e-01	1.248082e-01	1.680000e+00	1.679432e+00	1.678890e+00	1.678335e+00	1.677763e+00	1.677183e+00	1.676774e+00	1.678078e+00	7.619737e-01	7.624198e-01	7.628620e-01	7.633334e-01	7.638477e-01	7.644057e-01	7.647397e-01	7.621964e-01	7.624925e-01	7.630025e-01	7.634948e-01	7.640050e-01	7.645397e-01	7.650756e-01	7.652969e-01	7.630861e-01	7.661767e-01	7.667416e-01	7.672907e-01	7.678648e-01	7.684767e-01	7.691052e-01	7.693506e-01	7.662903e-01	7.714158e-01	7.720104e-01	7.725916e-01	7.732019e-01	7.738538e-01	7.745321e-01	7.748735e-01	7.718639e-01	7.781290e-01	7.787800e-01	7.794089e-01	7.800620e-01	7.807509e-01	7.814439e-01	7.816657e-01	7.781563e-01	1.553269e+00	1.552186e+00	1.551149e+00	1.550087e+00	1.548988e+00	1.547871e+00	1.547105e+00	1.549793e+00	1.575954e+00	1.574945e+00	1.573985e+00	1.573007e+00	1.572005e+00	1.570992e+00	1.570286e+00	1.572679e+00	1.594304e+00	1.593387e+00	1.592513e+00	1.591622e+00	1.590706e+00	1.589776e+00	1.589126e+00	1.591349e+00	1.608915e+00	1.608097e+00	1.607314e+00	1.606514e+00	1.605687e+00	1.604845e+00	1.604265e+00	1.606415e+00	1.620682e+00	1.619954e+00	1.619257e+00	1.618543e+00	1.617805e+00	1.617051e+00	1.616526e+00	1.618432e+00	1.147022e+00	1.146736e+00	1.146439e+00	1.146105e+00	1.145720e+00	1.145286e+00	1.145044e+00	1.147630e+00	1.635208e+00	1.634194e+00	1.633231e+00	1.632255e+00	1.631261e+00	1.630255e+00	1.629455e+00	1.631020e+00	1.629676e+00	1.629048e+00	1.628444e+00	1.627822e+00	1.627175e+00	1.626515e+00	1.626108e+00	1.627948e+00	1.636603e+00	1.636081e+00	1.635579e+00	1.635064e+00	1.634530e+00	1.633984e+00	1.633563e+00	1.634513e+00	1.641798e+00	1.641336e+00	1.640896e+00	1.640451e+00	1.639998e+00	1.639532e+00	1.639126e+00	1.639655e+00	1.645087e+00	1.644570e+00	1.644104e+00	1.643672e+00	1.643292e+00	1.642986e+00	1.642830e+00	1.643416e+00	1.645341e+00	1.644619e+00	1.643994e+00	1.643437e+00	1.642995e+00	1.642814e+00	1.643156e+00	1.643449e+00	1.639581e+00	1.639226e+00	1.638884e+00	1.638460e+00	1.637837e+00	1.636943e+00	1.636629e+00	1.641168e+00	6.850023e-01	6.850213e-01	6.850418e-01	6.850657e-01	6.850943e-01	6.851313e-01	6.851787e-01	6.851232e-01	6.924372e-01	6.924535e-01	6.924687e-01	6.924840e-01	6.925001e-01	6.925117e-01	6.924668e-01	6.920678e-01	7.005488e-01	7.005593e-01	7.005711e-01	7.005859e-01	7.006056e-01	7.006301e-01	7.006248e-01	7.002728e-01	7.077048e-01	7.077095e-01	7.077145e-01	7.077209e-01	7.077306e-01	7.077355e-01	7.076346e-01	7.067971e-01	5.369535e-01	5.369831e-01	5.370093e-01	5.370335e-01	5.370551e-01	5.370759e-01	5.371107e-01	5.371191e-01	5.469651e-01	5.469816e-01	5.469962e-01	5.470102e-01	5.470244e-01	5.470355e-01	5.469943e-01	5.465350e-01	5.569318e-01	5.569435e-01	5.569570e-01	5.569742e-01	5.569967e-01	5.570225e-01	5.570127e-01	5.566938e-01	5.665453e-01	5.665600e-01	5.665744e-01	5.665903e-01	5.666099e-01	5.666245e-01	5.665296e-01	5.657527e-01	1.615209e+00	1.614062e+00	1.612974e+00	1.611871e+00	1.610749e+00	1.609623e+00	1.608757e+00	1.610455e+00	6.322847e-01	6.323133e-01	6.323419e-01	6.323728e-01	6.324072e-01	6.324457e-01	6.324693e-01	6.322730e-01	6.230310e-01	6.230631e-01	6.230941e-01	6.231263e-01	6.231604e-01	6.231946e-01	6.231972e-01	6.229504e-01	6.501893e-01	6.502091e-01	6.502294e-01	6.502518e-01	6.502777e-01	6.503058e-01	6.503031e-01	6.500087e-01	6.412493e-01	6.412750e-01	6.413007e-01	6.413287e-01	6.413602e-01	6.413941e-01	6.413980e-01	6.411261e-01	4.582671e-01	4.582975e-01	4.583254e-01	4.583516e-01	4.583749e-01	4.584034e-01	4.585062e-01	4.588874e-01	4.677383e-01	4.677788e-01	4.678177e-01	4.678576e-01	4.678980e-01	4.679386e-01	4.679898e-01	4.681598e-01	4.779382e-01	4.779708e-01	4.780045e-01	4.780423e-01	4.780858e-01	4.781297e-01	4.781107e-01	4.777955e-01	4.874611e-01	4.874794e-01	4.874955e-01	4.875101e-01	4.875237e-01	4.875433e-01	4.875956e-01	4.875291e-01	1.484123e+00	1.482760e+00	1.481465e+00	1.480148e+00	1.478799e+00	1.477451e+00	1.476604e+00	1.480172e+00	1.525172e+00	1.523836e+00	1.522566e+00	1.521276e+00	1.519956e+00	1.518637e+00	1.517854e+00	1.521949e+00	1.384124e+00	1.382946e+00	1.381799e+00	1.380600e+00	1.379326e+00	1.377988e+00	1.377104e+00	1.381408e+00