# vtk DataFile Version 3.0
vtk output
ASCII
DATASET UNSTRUCTURED_GRID
POINTS 99 double
2.500000e-01	2.000000e-01	0.0	2.498993e-01	2.031712e-01	0.0	2.495977e-01	2.063296e-01	0.0	2.490964e-01	2.094626e-01	0.0	2.483974e-01	2.125574e-01	0.0	2.475036e-01	2.156017e-01	0.0	2.464184e-01	2.185831e-01	0.0	2.451463e-01	2.214897e-01	0.0	2.436925e-01	2.243098e-01	0.0	2.420627e-01	2.270320e-01	0.0	2.402635e-01	2.296454e-01	0.0	2.383022e-01	2.321394e-01	0.0	2.361867e-01	2.345040e-01	0.0	2.339255e-01	2.367296e-01	0.0	2.315276e-01	2.388073e-01	0.0	2.290028e-01	2.407288e-01	0.0	2.263613e-01	2.424863e-01	0.0	2.236136e-01	2.440727e-01	0.0	2.207708e-01	2.454816e-01	0.0	2.178443e-01	2.467074e-01	0.0	2.148460e-01	2.477451e-01	0.0	2.117879e-01	2.485906e-01	0.0	2.086824e-01	2.492404e-01	0.0	2.055419e-01	2.496919e-01	0.0	2.023791e-01	2.499434e-01	0.0	1.992067e-01	2.499937e-01	0.0	1.960375e-01	2.498427e-01	0.0	1.928843e-01	2.494911e-01	0.0	1.897597e-01	2.489401e-01	0.0	1.866763e-01	2.481921e-01	0.0	1.836466e-01	2.472500e-01	0.0	1.806827e-01	2.461177e-01	0.0	1.777967e-01	2.447997e-01	0.0	1.750000e-01	2.433013e-01	0.0	1.723040e-01	2.416285e-01	0.0	1.697195e-01	2.397881e-01	0.0	1.672570e-01	2.377875e-01	0.0	1.649263e-01	2.356347e-01	0.0	1.627368e-01	2.333385e-01	0.0	1.606973e-01	2.309079e-01	0.0	1.588162e-01	2.283530e-01	0.0	1.571008e-01	2.256839e-01	0.0	1.555582e-01	2.229113e-01	0.0	1.541946e-01	2.200465e-01	0.0	1.530154e-01	2.171010e-01	0.0	1.520254e-01	2.140866e-01	0.0	1.512285e-01	2.110155e-01	0.0	1.506281e-01	2.079001e-01	0.0	1.502264e-01	2.047528e-01	0.0	1.500252e-01	2.015864e-01	0.0	1.500252e-01	1.984136e-01	0.0	1.502264e-01	1.952472e-01	0.0	1.506281e-01	1.920999e-01	0.0	1.512285e-01	1.889845e-01	0.0	1.520254e-01	1.859134e-01	0.0	1.530154e-01	1.828990e-01	0.0	1.541946e-01	1.799535e-01	0.0	1.555582e-01	1.770887e-01	0.0	1.571008e-01	1.743161e-01	0.0	1.588162e-01	1.716470e-01	0.0	1.606973e-01	1.690921e-01	0.0	1.627368e-01	1.666615e-01	0.0	1.649263e-01	1.643653e-01	0.0	1.672570e-01	1.622125e-01	0.0	1.697195e-01	1.602119e-01	0.0	1.723040e-01	1.583715e-01	0.0	1.750000e-01	1.566987e-01	0.0	1.777967e-01	1.552003e-01	0.0	1.806827e-01	1.538823e-01	0.0	1.836466e-01	1.527500e-01	0.0	1.866763e-01	1.518079e-01	0.0	1.897597e-01	1.510599e-01	0.0	1.928843e-01	1.505089e-01	0.0	1.960375e-01	1.501573e-01	0.0	1.992067e-01	1.500063e-01	0.0	2.023791e-01	1.500566e-01	0.0	2.055419e-01	1.503081e-01	0.0	2.086824e-01	1.507596e-01	0.0	2.117879e-01	1.514094e-01	0.0	2.148460e-01	1.522549e-01	0.0	2.178443e-01	1.532926e-01	0.0	2.207708e-01	1.545184e-01	0.0	2.236136e-01	1.559273e-01	0.0	2.263613e-01	1.575137e-01	0.0	2.290028e-01	1.592712e-01	0.0	2.315276e-01	1.611927e-01	0.0	2.339255e-01	1.632704e-01	0.0	2.361867e-01	1.654960e-01	0.0	2.383022e-01	1.678606e-01	0.0	2.402635e-01	1.703546e-01	0.0	2.420627e-01	1.729680e-01	0.0	2.436925e-01	1.756902e-01	0.0	2.451463e-01	1.785103e-01	0.0	2.464184e-01	1.814169e-01	0.0	2.475036e-01	1.843983e-01	0.0	2.483974e-01	1.874426e-01	0.0	2.490964e-01	1.905374e-01	0.0	2.495977e-01	1.936704e-01	0.0	2.498993e-01	1.968288e-01	0.0	
CELLS 99	297
2	1	0	2	2	1	2	3	2	2	4	3	2	5	4	2	6	5	2	7	6	2	8	7	2	9	8	2	10	9	2	11	10	2	12	11	2	13	12	2	14	13	2	15	14	2	16	15	2	17	16	2	18	17	2	19	18	2	20	19	2	21	20	2	22	21	2	23	22	2	24	23	2	25	24	2	26	25	2	27	26	2	28	27	2	29	28	2	30	29	2	31	30	2	32	31	2	33	32	2	34	33	2	35	34	2	36	35	2	37	36	2	38	37	2	39	38	2	40	39	2	41	40	2	42	41	2	43	42	2	44	43	2	45	44	2	46	45	2	47	46	2	48	47	2	49	48	2	50	49	2	51	50	2	52	51	2	53	52	2	54	53	2	55	54	2	56	55	2	57	56	2	58	57	2	59	58	2	60	59	2	61	60	2	62	61	2	63	62	2	64	63	2	65	64	2	66	65	2	67	66	2	68	67	2	69	68	2	70	69	2	71	70	2	72	71	2	73	72	2	74	73	2	75	74	2	76	75	2	77	76	2	78	77	2	79	78	2	80	79	2	81	80	2	82	81	2	83	82	2	84	83	2	85	84	2	86	85	2	87	86	2	88	87	2	89	88	2	90	89	2	91	90	2	92	91	2	93	92	2	94	93	2	95	94	2	96	95	2	97	96	2	98	97	2	0	98	
CELL_TYPES 99
3	3	3	3	3	3	3	3	3	3	3	3	3	3	3	3	3	3	3	3	3	3	3	3	3	3	3	3	3	3	3	3	3	3	3	3	3	3	3	3	3	3	3	3	3	3	3	3	3	3	3	3	3	3	3	3	3	3	3	3	3	3	3	3	3	3	3	3	3	3	3	3	3	3	3	3	3	3	3	3	3	3	3	3	3	3	3	3	3	3	3	3	3	3	3	3	3	3	3	
POINT_DATA 99

SCALARS Pressure double 1
LOOKUP_TABLE default
4.604946e-01	4.585368e-01	4.514593e-01	4.395485e-01	4.232477e-01	4.030868e-01	3.796184e-01	3.533701e-01	3.246631e-01	2.937273e-01	2.608257e-01	2.260158e-01	1.890827e-01	1.499357e-01	1.087527e-01	6.593208e-02	2.204724e-02	-2.207108e-02	-6.534099e-02	-1.064881e-01	-1.440169e-01	-1.762704e-01	-2.012910e-01	-2.170569e-01	-2.213809e-01	-2.122707e-01	-1.878219e-01	-1.463743e-01	-8.648505e-02	-6.785423e-03	9.362033e-02	2.153076e-01	3.581047e-01	5.211163e-01	7.029366e-01	9.016932e-01	1.115072e+00	1.340168e+00	1.573564e+00	1.811124e+00	2.048285e+00	2.280227e+00	2.502026e+00	2.708766e+00	2.895679e+00	3.058517e+00	3.193396e+00	3.296997e+00	3.366652e+00	3.400622e+00	3.398069e+00	3.359255e+00	3.285287e+00	3.178137e+00	3.040471e+00	2.875735e+00	2.688000e+00	2.481735e+00	2.261569e+00	2.032299e+00	1.798703e+00	1.565199e+00	1.336035e+00	1.115154e+00	9.059592e-01	7.112935e-01	5.333927e-01	3.737943e-01	2.336542e-01	1.136028e-01	1.383847e-02	-6.594663e-02	-1.264834e-01	-1.689100e-01	-1.946830e-01	-2.056560e-01	-2.036173e-01	-1.904407e-01	-1.680536e-01	-1.384048e-01	-1.032365e-01	-6.416339e-02	-2.270357e-02	1.983967e-02	6.244676e-02	1.042877e-01	1.447167e-01	1.833201e-01	2.200085e-01	2.547951e-01	2.876566e-01	3.185498e-01	3.473982e-01	3.740132e-01	3.980218e-01	4.188709e-01	4.360384e-01	4.489941e-01	4.572620e-01	
VECTORS Velocity double
0.000000e+00	0.000000e+00	0.0	0.000000e+00	0.000000e+00	0.0	0.000000e+00	0.000000e+00	0.0	0.000000e+00	0.000000e+00	0.0	0.000000e+00	0.000000e+00	0.0	0.000000e+00	0.000000e+00	0.0	0.000000e+00	0.000000e+00	0.0	0.000000e+00	0.000000e+00	0.0	0.000000e+00	0.000000e+00	0.0	0.000000e+00	0.000000e+00	0.0	0.000000e+00	0.000000e+00	0.0	0.000000e+00	0.000000e+00	0.0	0.000000e+00	0.000000e+00	0.0	0.000000e+00	0.000000e+00	0.0	0.000000e+00	0.000000e+00	0.0	0.000000e+00	0.000000e+00	0.0	0.000000e+00	0.000000e+00	0.0	0.000000e+00	0.000000e+00	0.0	0.000000e+00	0.000000e+00	0.0	0.000000e+00	0.000000e+00	0.0	0.000000e+00	0.000000e+00	0.0	0.000000e+00	0.000000e+00	0.0	0.000000e+00	0.000000e+00	0.0	0.000000e+00	0.000000e+00	0.0	0.000000e+00	0.000000e+00	0.0	0.000000e+00	0.000000e+00	0.0	0.000000e+00	0.000000e+00	0.0	0.000000e+00	0.000000e+00	0.0	0.000000e+00	0.000000e+00	0.0	0.000000e+00	0.000000e+00	0.0	0.000000e+00	0.000000e+00	0.0	0.000000e+00	0.000000e+00	0.0	0.000000e+00	0.000000e+00	0.0	0.000000e+00	0.000000e+00	0.0	0.000000e+00	0.000000e+00	0.0	0.000000e+00	0.000000e+00	0.0	0.000000e+00	0.000000e+00	0.0	0.000000e+00	0.000000e+00	0.0	0.000000e+00	0.000000e+00	0.0	0.000000e+00	0.000000e+00	0.0	0.000000e+00	0.000000e+00	0.0	0.000000e+00	0.000000e+00	0.0	0.000000e+00	0.000000e+00	0.0	0.000000e+00	0.000000e+00	0.0	0.000000e+00	0.000000e+00	0.0	0.000000e+00	0.000000e+00	0.0	0.000000e+00	0.000000e+00	0.0	0.000000e+00	0.000000e+00	0.0	0.000000e+00	0.000000e+00	0.0	0.000000e+00	0.000000e+00	0.0	0.000000e+00	0.000000e+00	0.0	0.000000e+00	0.000000e+00	0.0	0.000000e+00	0.000000e+00	0.0	0.000000e+00	0.000000e+00	0.0	0.000000e+00	0.000000e+00	0.0	0.000000e+00	0.000000e+00	0.0	0.000000e+00	0.000000e+00	0.0	0.000000e+00	0.000000e+00	0.0	0.000000e+00	0.000000e+00	0.0	0.000000e+00	0.000000e+00	0.0	0.000000e+00	0.000000e+00	0.0	0.000000e+00	0.000000e+00	0.0	0.000000e+00	0.000000e+00	0.0	0.000000e+00	0.000000e+00	0.0	0.000000e+00	0.000000e+00	0.0	0.000000e+00	0.000000e+00	0.0	0.000000e+00	0.000000e+00	0.0	0.000000e+00	0.000000e+00	0.0	0.000000e+00	0.000000e+00	0.0	0.000000e+00	0.000000e+00	0.0	0.000000e+00	0.000000e+00	0.0	0.000000e+00	0.000000e+00	0.0	0.000000e+00	0.000000e+00	0.0	0.000000e+00	0.000000e+00	0.0	0.000000e+00	0.000000e+00	0.0	0.000000e+00	0.000000e+00	0.0	0.000000e+00	0.000000e+00	0.0	0.000000e+00	0.000000e+00	0.0	0.000000e+00	0.000000e+00	0.0	0.000000e+00	0.000000e+00	0.0	0.000000e+00	0.000000e+00	0.0	0.000000e+00	0.000000e+00	0.0	0.000000e+00	0.000000e+00	0.0	0.000000e+00	0.000000e+00	0.0	0.000000e+00	0.000000e+00	0.0	0.000000e+00	0.000000e+00	0.0	0.000000e+00	0.000000e+00	0.0	0.000000e+00	0.000000e+00	0.0	0.000000e+00	0.000000e+00	0.0	0.000000e+00	0.000000e+00	0.0	0.000000e+00	0.000000e+00	0.0	0.000000e+00	0.000000e+00	0.0	0.000000e+00	0.000000e+00	0.0	0.000000e+00	0.000000e+00	0.0	0.000000e+00	0.000000e+00	0.0	0.000000e+00	0.000000e+00	0.0	0.000000e+00	0.000000e+00	0.0	0.000000e+00	0.000000e+00	0.0	0.000000e+00	0.000000e+00	0.0	
SCALARS Pressure_Coefficient double 1
LOOKUP_TABLE default
9.209892e-01	9.170737e-01	9.029186e-01	8.790969e-01	8.464955e-01	8.061737e-01	7.592369e-01	7.067402e-01	6.493262e-01	5.874545e-01	5.216514e-01	4.520316e-01	3.781654e-01	2.998715e-01	2.175054e-01	1.318642e-01	4.409448e-02	-4.414217e-02	-1.306820e-01	-2.129761e-01	-2.880339e-01	-3.525407e-01	-4.025820e-01	-4.341138e-01	-4.427618e-01	-4.245415e-01	-3.756438e-01	-2.927486e-01	-1.729701e-01	-1.357085e-02	1.872407e-01	4.306151e-01	7.162093e-01	1.042233e+00	1.405873e+00	1.803386e+00	2.230143e+00	2.680335e+00	3.147128e+00	3.622248e+00	4.096570e+00	4.560454e+00	5.004053e+00	5.417532e+00	5.791359e+00	6.117034e+00	6.386793e+00	6.593993e+00	6.733304e+00	6.801244e+00	6.796137e+00	6.718509e+00	6.570574e+00	6.356274e+00	6.080942e+00	5.751470e+00	5.376000e+00	4.963471e+00	4.523138e+00	4.064597e+00	3.597406e+00	3.130398e+00	2.672071e+00	2.230309e+00	1.811918e+00	1.422587e+00	1.066785e+00	7.475886e-01	4.673083e-01	2.272056e-01	2.767694e-02	-1.318933e-01	-2.529668e-01	-3.378200e-01	-3.893661e-01	-4.113119e-01	-4.072347e-01	-3.808815e-01	-3.361073e-01	-2.768096e-01	-2.064731e-01	-1.283268e-01	-4.540713e-02	3.967935e-02	1.248935e-01	2.085753e-01	2.894334e-01	3.666402e-01	4.400170e-01	5.095901e-01	5.753132e-01	6.370996e-01	6.947964e-01	7.480264e-01	7.960436e-01	8.377418e-01	8.720767e-01	8.979882e-01	9.145239e-01	
SCALARS Density double 1
LOOKUP_TABLE default
1.000000e+00	1.000000e+00	1.000000e+00	1.000000e+00	1.000000e+00	1.000000e+00	1.000000e+00	1.000000e+00	1.000000e+00	1.000000e+00	1.000000e+00	1.000000e+00	1.000000e+00	1.000000e+00	1.000000e+00	1.000000e+00	1.000000e+00	1.000000e+00	1.000000e+00	1.000000e+00	1.000000e+00	1.000000e+00	1.000000e+00	1.000000e+00	1.000000e+00	1.000000e+00	1.000000e+00	1.000000e+00	1.000000e+00	1.000000e+00	1.000000e+00	1.000000e+00	1.000000e+00	1.000000e+00	1.000000e+00	1.000000e+00	1.000000e+00	1.000000e+00	1.000000e+00	1.000000e+00	1.000000e+00	1.000000e+00	1.000000e+00	1.000000e+00	1.000000e+00	1.000000e+00	1.000000e+00	1.000000e+00	1.000000e+00	1.000000e+00	1.000000e+00	1.000000e+00	1.000000e+00	1.000000e+00	1.000000e+00	1.000000e+00	1.000000e+00	1.000000e+00	1.000000e+00	1.000000e+00	1.000000e+00	1.000000e+00	1.000000e+00	1.000000e+00	1.000000e+00	1.000000e+00	1.000000e+00	1.000000e+00	1.000000e+00	1.000000e+00	1.000000e+00	1.000000e+00	1.000000e+00	1.000000e+00	1.000000e+00	1.000000e+00	1.000000e+00	1.000000e+00	1.000000e+00	1.000000e+00	1.000000e+00	1.000000e+00	1.000000e+00	1.000000e+00	1.000000e+00	1.000000e+00	1.000000e+00	1.000000e+00	1.000000e+00	1.000000e+00	1.000000e+00	1.000000e+00	1.000000e+00	1.000000e+00	1.000000e+00	1.000000e+00	1.000000e+00	1.000000e+00	1.000000e+00	
SCALARS Laminar_Viscosity double 1
LOOKUP_TABLE default
5.000000e-03	5.000000e-03	5.000000e-03	5.000000e-03	5.000000e-03	5.000000e-03	5.000000e-03	5.000000e-03	5.000000e-03	5.000000e-03	5.000000e-03	5.000000e-03	5.000000e-03	5.000000e-03	5.000000e-03	5.000000e-03	5.000000e-03	5.000000e-03	5.000000e-03	5.000000e-03	5.000000e-03	5.000000e-03	5.000000e-03	5.000000e-03	5.000000e-03	5.000000e-03	5.000000e-03	5.000000e-03	5.000000e-03	5.000000e-03	5.000000e-03	5.000000e-03	5.000000e-03	5.000000e-03	5.000000e-03	5.000000e-03	5.000000e-03	5.000000e-03	5.000000e-03	5.000000e-03	5.000000e-03	5.000000e-03	5.000000e-03	5.000000e-03	5.000000e-03	5.000000e-03	5.000000e-03	5.000000e-03	5.000000e-03	5.000000e-03	5.000000e-03	5.000000e-03	5.000000e-03	5.000000e-03	5.000000e-03	5.000000e-03	5.000000e-03	5.000000e-03	5.000000e-03	5.000000e-03	5.000000e-03	5.000000e-03	5.000000e-03	5.000000e-03	5.000000e-03	5.000000e-03	5.000000e-03	5.000000e-03	5.000000e-03	5.000000e-03	5.000000e-03	5.000000e-03	5.000000e-03	5.000000e-03	5.000000e-03	5.000000e-03	5.000000e-03	5.000000e-03	5.000000e-03	5.000000e-03	5.000000e-03	5.000000e-03	5.000000e-03	5.000000e-03	5.000000e-03	5.000000e-03	5.000000e-03	5.000000e-03	5.000000e-03	5.000000e-03	5.000000e-03	5.000000e-03	5.000000e-03	5.000000e-03	5.000000e-03	5.000000e-03	5.000000e-03	5.000000e-03	5.000000e-03	
SCALARS Heat_Capacity double 1
LOOKUP_TABLE default
7.237629e+06	7.237629e+06	7.237629e+06	7.237629e+06	7.237629e+06	7.237629e+06	7.237629e+06	7.237629e+06	7.237629e+06	7.237629e+06	7.237629e+06	7.237629e+06	7.237629e+06	7.237629e+06	7.237629e+06	7.237629e+06	7.237629e+06	7.237629e+06	7.237629e+06	7.237629e+06	7.237629e+06	7.237629e+06	7.237629e+06	7.237629e+06	7.237629e+06	7.237629e+06	7.237629e+06	7.237629e+06	7.237629e+06	7.237629e+06	7.237629e+06	7.237629e+06	7.237629e+06	7.237629e+06	7.237629e+06	7.237629e+06	7.237629e+06	7.237629e+06	7.237629e+06	7.237629e+06	7.237629e+06	7.237629e+06	7.237629e+06	7.237629e+06	7.237629e+06	7.237629e+06	7.237629e+06	7.237629e+06	7.237629e+06	7.237629e+06	7.237629e+06	7.237629e+06	7.237629e+06	7.237629e+06	7.237629e+06	7.237629e+06	7.237629e+06	7.237629e+06	7.237629e+06	7.237629e+06	7.237629e+06	7.237629e+06	7.237629e+06	7.237629e+06	7.237629e+06	7.237629e+06	7.237629e+06	7.237629e+06	7.237629e+06	7.237629e+06	7.237629e+06	7.237629e+06	7.237629e+06	7.237629e+06	7.237629e+06	7.237629e+06	7.237629e+06	7.237629e+06	7.237629e+06	7.237629e+06	7.237629e+06	7.237629e+06	7.237629e+06	7.237629e+06	7.237629e+06	7.237629e+06	7.237629e+06	7.237629e+06	7.237629e+06	7.237629e+06	7.237629e+06	7.237629e+06	7.237629e+06	7.237629e+06	7.237629e+06	7.237629e+06	7.237629e+06	7.237629e+06	7.237629e+06	
SCALARS Thermal_Conductivity double 1
LOOKUP_TABLE default
5.026131e+04	5.026131e+04	5.026131e+04	5.026131e+04	5.026131e+04	5.026131e+04	5.026131e+04	5.026131e+04	5.026131e+04	5.026131e+04	5.026131e+04	5.026131e+04	5.026131e+04	5.026131e+04	5.026131e+04	5.026131e+04	5.026131e+04	5.026131e+04	5.026131e+04	5.026131e+04	5.026131e+04	5.026131e+04	5.026131e+04	5.026131e+04	5.026131e+04	5.026131e+04	5.026131e+04	5.026131e+04	5.026131e+04	5.026131e+04	5.026131e+04	5.026131e+04	5.026131e+04	5.026131e+04	5.026131e+04	5.026131e+04	5.026131e+04	5.026131e+04	5.026131e+04	5.026131e+04	5.026131e+04	5.026131e+04	5.026131e+04	5.026131e+04	5.026131e+04	5.026131e+04	5.026131e+04	5.026131e+04	5.026131e+04	5.026131e+04	5.026131e+04	5.026131e+04	5.026131e+04	5.026131e+04	5.026131e+04	5.026131e+04	5.026131e+04	5.026131e+04	5.026131e+04	5.026131e+04	5.026131e+04	5.026131e+04	5.026131e+04	5.026131e+04	5.026131e+04	5.026131e+04	5.026131e+04	5.026131e+04	5.026131e+04	5.026131e+04	5.026131e+04	5.026131e+04	5.026131e+04	5.026131e+04	5.026131e+04	5.026131e+04	5.026131e+04	5.026131e+04	5.026131e+04	5.026131e+04	5.026131e+04	5.026131e+04	5.026131e+04	5.026131e+04	5.026131e+04	5.026131e+04	5.026131e+04	5.026131e+04	5.026131e+04	5.026131e+04	5.026131e+04	5.026131e+04	5.026131e+04	5.026131e+04	5.026131e+04	5.026131e+04	5.026131e+04	5.026131e+04	5.026131e+04	
VECTORS Skin_Friction_Coefficient double
0.000000e+00	-2.431834e-03	0.0	-1.597683e-03	2.513983e-02	0.0	-6.514131e-03	5.104351e-02	0.0	-1.416953e-02	7.351848e-02	0.0	-2.364839e-02	9.114319e-02	0.0	-3.380371e-02	1.029247e-01	0.0	-4.336518e-02	1.083210e-01	0.0	-5.108201e-02	1.073147e-01	0.0	-5.577255e-02	1.002409e-01	0.0	-5.624341e-02	8.751646e-02	0.0	-5.141297e-02	6.982760e-02	0.0	-4.042315e-02	4.817443e-02	0.0	-2.236380e-02	2.345448e-02	0.0	3.901174e-03	-3.603339e-03	0.0	3.953617e-02	-3.211976e-02	0.0	8.556660e-02	-6.093170e-02	0.0	1.428534e-01	-8.863560e-02	0.0	2.120213e-01	-1.135982e-01	0.0	2.932785e-01	-1.339358e-01	0.0	3.863636e-01	-1.476082e-01	0.0	4.904884e-01	-1.525140e-01	0.0	6.044152e-01	-1.466296e-01	0.0	7.263488e-01	-1.280749e-01	0.0	8.539332e-01	-9.523521e-02	0.0	9.841746e-01	-4.688202e-02	0.0	1.113547e+00	1.766972e-02	0.0	1.238333e+00	9.844746e-02	0.0	1.354709e+00	1.947777e-01	0.0	1.459091e+00	3.053032e-01	0.0	1.547966e+00	4.279667e-01	0.0	1.618152e+00	5.600479e-01	0.0	1.666886e+00	6.982061e-01	0.0	1.691753e+00	8.384554e-01	0.0	1.691244e+00	9.764402e-01	0.0	1.664776e+00	1.107598e+00	0.0	1.612583e+00	1.227246e+00	0.0	1.535658e+00	1.330655e+00	0.0	1.435893e+00	1.413289e+00	0.0	1.315988e+00	1.470913e+00	0.0	1.179450e+00	1.499793e+00	0.0	1.030649e+00	1.497058e+00	0.0	8.745992e-01	1.460823e+00	0.0	7.167394e-01	1.390280e+00	0.0	5.626985e-01	1.285741e+00	0.0	4.181340e-01	1.148814e+00	0.0	2.884046e-01	9.822158e-01	0.0	1.783478e-01	7.896390e-01	0.0	9.213640e-02	5.758118e-01	0.0	3.307478e-02	3.463748e-01	0.0	3.415441e-03	1.075936e-01	0.0	4.249368e-03	-1.338640e-01	0.0	3.545213e-02	-3.712715e-01	0.0	9.571397e-02	-5.981700e-01	0.0	1.826158e-01	-8.085353e-01	0.0	2.927413e-01	-9.969854e-01	0.0	4.218084e-01	-1.158909e+00	0.0	5.648984e-01	-1.290768e+00	0.0	7.167085e-01	-1.390220e+00	0.0	8.717299e-01	-1.456030e+00	0.0	1.024468e+00	-1.488080e+00	0.0	1.169824e+00	-1.487552e+00	0.0	1.303113e+00	-1.456522e+00	0.0	1.420092e+00	-1.397736e+00	0.0	1.517329e+00	-1.314773e+00	0.0	1.592275e+00	-1.211791e+00	0.0	1.643217e+00	-1.093255e+00	0.0	1.669343e+00	-9.637954e-01	0.0	1.670475e+00	-8.279099e-01	0.0	1.647128e+00	-6.899300e-01	0.0	1.600678e+00	-5.540000e-01	0.0	1.533251e+00	-4.238984e-01	0.0	1.447609e+00	-3.029008e-01	0.0	1.346925e+00	-1.936585e-01	0.0	1.234624e+00	-9.815265e-02	0.0	1.114355e+00	-1.768254e-02	0.0	9.895517e-01	4.713816e-02	0.0	8.633745e-01	9.628816e-02	0.0	7.389796e-01	1.303020e-01	0.0	6.192892e-01	1.502379e-01	0.0	5.067097e-01	1.575579e-01	0.0	4.031056e-01	1.540044e-01	0.0	3.099396e-01	1.415447e-01	0.0	2.281054e-01	1.222159e-01	0.0	1.578936e-01	9.796757e-02	0.0	9.918514e-02	7.062942e-02	0.0	5.154480e-02	4.187574e-02	0.0	1.421176e-02	1.312676e-02	0.0	-1.384404e-02	-1.451922e-02	0.0	-3.367291e-02	-4.012981e-02	0.0	-4.619787e-02	-6.274460e-02	0.0	-5.234250e-02	-8.144652e-02	0.0	-5.310071e-02	-9.543877e-02	0.0	-4.951753e-02	-1.040280e-01	0.0	-4.268293e-02	-1.066168e-01	0.0	-3.375468e-02	-1.027753e-01	0.0	-2.399992e-02	-9.249802e-02	0.0	-1.469734e-02	-7.625706e-02	0.0	-7.007482e-03	-5.490932e-02	0.0	-1.890524e-03	-2.974773e-02	0.0	
SCALARS Heat_Flux double 1
LOOKUP_TABLE default
-0.000000e+00	-0.000000e+00	-0.000000e+00	-0.000000e+00	-0.000000e+00	-0.000000e+00	-0.000000e+00	-0.000000e+00	-0.000000e+00	-0.000000e+00	-0.000000e+00	-0.000000e+00	-0.000000e+00	-0.000000e+00	-0.000000e+00	-0.000000e+00	-0.000000e+00	-0.000000e+00	-0.000000e+00	-0.000000e+00	-0.000000e+00	-0.000000e+00	-0.000000e+00	-0.000000e+00	-0.000000e+00	-0.000000e+00	-0.000000e+00	-0.000000e+00	-0.000000e+00	-0.000000e+00	-0.000000e+00	-0.000000e+00	-0.000000e+00	-0.000000e+00	-0.000000e+00	-0.000000e+00	-0.000000e+00	-0.000000e+00	-0.000000e+00	-0.000000e+00	-0.000000e+00	-0.000000e+00	-0.000000e+00	-0.000000e+00	-0.000000e+00	-0.000000e+00	-0.000000e+00	-0.000000e+00	-0.000000e+00	-0.000000e+00	-0.000000e+00	-0.000000e+00	-0.000000e+00	-0.000000e+00	-0.000000e+00	-0.000000e+00	-0.000000e+00	-0.000000e+00	-0.000000e+00	-0.000000e+00	-0.000000e+00	-0.000000e+00	-0.000000e+00	-0.000000e+00	-0.000000e+00	-0.000000e+00	-0.000000e+00	-0.000000e+00	-0.000000e+00	-0.000000e+00	-0.000000e+00	-0.000000e+00	-0.000000e+00	-0.000000e+00	-0.000000e+00	-0.000000e+00	-0.000000e+00	-0.000000e+00	-0.000000e+00	-0.000000e+00	-0.000000e+00	-0.000000e+00	-0.000000e+00	-0.000000e+00	-0.000000e+00	-0.000000e+00	-0.000000e+00	-0.000000e+00	-0.000000e+00	-0.000000e+00	-0.000000e+00	-0.000000e+00	-0.000000e+00	-0.000000e+00	-0.000000e+00	-0.000000e+00	-0.000000e+00	-0.000000e+00	-0.000000e+00	
SCALARS Y_Plus double 1
LOOKUP_TABLE default
6.977513e-04	2.245704e-03	3.209653e-03	3.871613e-03	4.341798e-03	4.657098e-03	4.833146e-03	4.877947e-03	4.792233e-03	4.563679e-03	4.166548e-03	3.548257e-03	2.547165e-03	1.031118e-03	3.193443e-03	4.585852e-03	5.801491e-03	6.939429e-03	8.034169e-03	9.099635e-03	1.014072e-02	1.115862e-02	1.215152e-02	1.311559e-02	1.404481e-02	1.493191e-02	1.577017e-02	1.655306e-02	1.727537e-02	1.793129e-02	1.851515e-02	1.902120e-02	1.944239e-02	1.977295e-02	2.000789e-02	2.014203e-02	2.016936e-02	2.008367e-02	1.987797e-02	1.954445e-02	1.907544e-02	1.846261e-02	1.769596e-02	1.676243e-02	1.564464e-02	1.431582e-02	1.273063e-02	1.080485e-02	8.346268e-03	4.642332e-03	5.178154e-03	8.641020e-03	1.101263e-02	1.288206e-02	1.442305e-02	1.571323e-02	1.679517e-02	1.769558e-02	1.843230e-02	1.901816e-02	1.946453e-02	1.978049e-02	1.997286e-02	2.004863e-02	2.001480e-02	1.987792e-02	1.964451e-02	1.931974e-02	1.890813e-02	1.841491e-02	1.784585e-02	1.720727e-02	1.650543e-02	1.574654e-02	1.493732e-02	1.408313e-02	1.318789e-02	1.225672e-02	1.129508e-02	1.030704e-02	9.294699e-03	8.259226e-03	7.197834e-03	6.099253e-03	4.937319e-03	3.646316e-03	1.968043e-03	2.004083e-03	3.238473e-03	3.949581e-03	4.402572e-03	4.676036e-03	4.802668e-03	4.794976e-03	4.653719e-03	4.373949e-03	3.943063e-03	3.328977e-03	2.442858e-03	